 Entering Link 1 = C:\Program Files\G09W\l1.exe PID=      5596.
  
 Copyright (c) 1988,1990,1992,1993,1995,1998,2003,2009,2011,
            Gaussian, Inc.  All Rights Reserved.
  
 This is part of the Gaussian(R) 09 program.  It is based on
 the Gaussian(R) 03 system (copyright 2003, Gaussian, Inc.),
 the Gaussian(R) 98 system (copyright 1998, Gaussian, Inc.),
 the Gaussian(R) 94 system (copyright 1995, Gaussian, Inc.),
 the Gaussian 92(TM) system (copyright 1992, Gaussian, Inc.),
 the Gaussian 90(TM) system (copyright 1990, Gaussian, Inc.),
 the Gaussian 88(TM) system (copyright 1988, Gaussian, Inc.),
 the Gaussian 86(TM) system (copyright 1986, Carnegie Mellon
 University), and the Gaussian 82(TM) system (copyright 1983,
 Carnegie Mellon University). Gaussian is a federally registered
 trademark of Gaussian, Inc.
  
 This software contains proprietary and confidential information,
 including trade secrets, belonging to Gaussian, Inc.
  
 This software is provided under written license and may be
 used, copied, transmitted, or stored only in accord with that
 written license.
  
 The following legend is applicable only to US Government
 contracts under FAR:
  
                    RESTRICTED RIGHTS LEGEND
  
 Use, reproduction and disclosure by the US Government is
 subject to restrictions as set forth in subparagraphs (a)
 and (c) of the Commercial Computer Software - Restricted
 Rights clause in FAR 52.227-19.
  
 Gaussian, Inc.
 340 Quinnipiac St., Bldg. 40, Wallingford CT 06492
  
  
 ---------------------------------------------------------------
 Warning -- This program may not be used in any manner that
 competes with the business of Gaussian, Inc. or will provide
 assistance to any competitor of Gaussian, Inc.  The licensee
 of this program is prohibited from giving any competitor of
 Gaussian, Inc. access to this program.  By using this program,
 the user acknowledges that Gaussian, Inc. is engaged in the
 business of creating and licensing software in the field of
 computational chemistry and represents and warrants to the
 licensee that it is not a competitor of Gaussian, Inc. and that
 it will not use this program in any manner prohibited above.
 ---------------------------------------------------------------
  

 Cite this work as:
 Gaussian 09, Revision C.01,
 M. J. Frisch, G. W. Trucks, H. B. Schlegel, G. E. Scuseria, 
 M. A. Robb, J. R. Cheeseman, G. Scalmani, V. Barone, B. Mennucci, 
 G. A. Petersson, H. Nakatsuji, M. Caricato, X. Li, H. P. Hratchian, 
 A. F. Izmaylov, J. Bloino, G. Zheng, J. L. Sonnenberg, M. Hada, 
 M. Ehara, K. Toyota, R. Fukuda, J. Hasegawa, M. Ishida, T. Nakajima, 
 Y. Honda, O. Kitao, H. Nakai, T. Vreven, J. A. Montgomery, Jr., 
 J. E. Peralta, F. Ogliaro, M. Bearpark, J. J. Heyd, E. Brothers, 
 K. N. Kudin, V. N. Staroverov, T. Keith, R. Kobayashi, J. Normand, 
 K. Raghavachari, A. Rendell, J. C. Burant, S. S. Iyengar, J. Tomasi, 
 M. Cossi, N. Rega, J. M. Millam, M. Klene, J. E. Knox, J. B. Cross, 
 V. Bakken, C. Adamo, J. Jaramillo, R. Gomperts, R. E. Stratmann, 
 O. Yazyev, A. J. Austin, R. Cammi, C. Pomelli, J. W. Ochterski, 
 R. L. Martin, K. Morokuma, V. G. Zakrzewski, G. A. Voth, 
 P. Salvador, J. J. Dannenberg, S. Dapprich, A. D. Daniels, 
 O. Farkas, J. B. Foresman, J. V. Ortiz, J. Cioslowski, 
 and D. J. Fox, Gaussian, Inc., Wallingford CT, 2010.
 
 ******************************************
 Gaussian 09:  EM64W-G09RevC.01 23-Sep-2011
                03-Jul-2019 
 ******************************************
 %chk=BHH
 ----------------------------------------------
 #P CAM-B3LYP/6-311+G** NoSymm Opt Freq SCF=XQC
 ----------------------------------------------
 1/14=-1,18=20,19=15,26=3,38=1/1,3;
 2/9=110,12=2,15=1,17=6,18=5,40=1/2;
 3/5=4,6=6,7=111,11=2,16=1,25=1,30=1,71=1,74=-40/1,2,3;
 4//1;
 5/5=2,8=3,13=1,38=5/2,8;
 6/7=2,8=2,9=2,10=2,28=1/1;
 7/30=1/1,2,3,16;
 1/14=-1,18=20,19=15/3(2);
 2/9=110,15=1/2;
 99//99;
 2/9=110,15=1/2;
 3/5=4,6=6,7=111,11=2,16=1,25=1,30=1,71=1,74=-40/1,2,3;
 4/5=5,16=3/1;
 5/5=2,8=3,13=1,38=5/2,8;
 7/30=1/1,2,3,16;
 1/14=-1,18=20,19=15/3(-5);
 2/9=110,15=1/2;
 6/7=2,8=2,9=2,10=2,19=2,28=1/1;
 99/9=1/99;
 Leave Link    1 at Wed Jul 03 13:39:33 2019, MaxMem=          0 cpu:       1.0
 (Enter C:\Program Files\G09W\l101.exe)
 -------------------------
 BHH geometry optimization
 -------------------------
 Charge =  0 Multiplicity = 1
 Symbolic Z-Matrix:
 C                     2.39853  -0.70816   0.83655 
 C                     3.79369  -0.70816   0.83655 
 C                     4.49123   0.49959   0.83655 
 C                     3.79357   1.7081    0.83535 
 C                     2.39875   1.70802   0.83487 
 C                     1.70115   0.49981   0.83587 
 H                     4.3432   -1.66068   0.83786 
 H                     4.34377   2.66024   0.83529 
 H                     0.60154   0.5       0.83569 
 O                     1.68343   2.94625   0.83363 
 H                     1.52438   3.22355  -0.07158 
 O                     1.68359  -1.94661   0.83713 
 H                     1.76309  -2.36212   1.6989 
 O                     5.92123   0.49969   0.83737 
 H                     6.2422    0.49748  -0.06738 
 
 NAtoms=     15 NQM=        0 NQMF=       0 NMMI=     15 NMMIF=      0
                NMic=       0 NMicF=      0.
                    Isotopes and Nuclear Properties:
 (Nuclear quadrupole moments (NQMom) in fm**2, nuclear magnetic moments (NMagM)
  in nuclear magnetons)

  Atom         1           2           3           4           5           6           7           8           9          10
 IAtWgt=          12          12          12          12          12          12           1           1           1          16
 AtmWgt=  12.0000000  12.0000000  12.0000000  12.0000000  12.0000000  12.0000000   1.0078250   1.0078250   1.0078250  15.9949146
 NucSpn=           0           0           0           0           0           0           1           1           1           0
 AtZEff=   0.0000000   0.0000000   0.0000000   0.0000000   0.0000000   0.0000000   0.0000000   0.0000000   0.0000000   0.0000000
 NQMom=    0.0000000   0.0000000   0.0000000   0.0000000   0.0000000   0.0000000   0.0000000   0.0000000   0.0000000   0.0000000
 NMagM=    0.0000000   0.0000000   0.0000000   0.0000000   0.0000000   0.0000000   2.7928460   2.7928460   2.7928460   0.0000000

  Atom        11          12          13          14          15
 IAtWgt=           1          16           1          16           1
 AtmWgt=   1.0078250  15.9949146   1.0078250  15.9949146   1.0078250
 NucSpn=           1           0           1           0           1
 AtZEff=   0.0000000   0.0000000   0.0000000   0.0000000   0.0000000
 NQMom=    0.0000000   0.0000000   0.0000000   0.0000000   0.0000000
 NMagM=    2.7928460   0.0000000   2.7928460   0.0000000   2.7928460
 Leave Link  101 at Wed Jul 03 13:39:33 2019, MaxMem=   33554432 cpu:       0.0
 (Enter C:\Program Files\G09W\l103.exe)

 GradGradGradGradGradGradGradGradGradGradGradGradGradGradGradGradGradGrad
 Berny optimization.
 Initialization pass.
                           ----------------------------
                           !    Initial Parameters    !
                           ! (Angstroms and Degrees)  !
 --------------------------                            --------------------------
 ! Name  Definition              Value          Derivative Info.                !
 --------------------------------------------------------------------------------
 ! R1    R(1,2)                  1.3952         estimate D2E/DX2                !
 ! R2    R(1,6)                  1.3948         estimate D2E/DX2                !
 ! R3    R(1,12)                 1.43           estimate D2E/DX2                !
 ! R4    R(2,3)                  1.3947         estimate D2E/DX2                !
 ! R5    R(2,7)                  1.0997         estimate D2E/DX2                !
 ! R6    R(3,4)                  1.3954         estimate D2E/DX2                !
 ! R7    R(3,14)                 1.43           estimate D2E/DX2                !
 ! R8    R(4,5)                  1.3948         estimate D2E/DX2                !
 ! R9    R(4,8)                  1.0997         estimate D2E/DX2                !
 ! R10   R(5,6)                  1.3951         estimate D2E/DX2                !
 ! R11   R(5,10)                 1.43           estimate D2E/DX2                !
 ! R12   R(6,9)                  1.0996         estimate D2E/DX2                !
 ! R13   R(10,11)                0.96           estimate D2E/DX2                !
 ! R14   R(12,13)                0.96           estimate D2E/DX2                !
 ! R15   R(14,15)                0.96           estimate D2E/DX2                !
 ! A1    A(2,1,6)              119.9985         estimate D2E/DX2                !
 ! A2    A(2,1,12)             119.9972         estimate D2E/DX2                !
 ! A3    A(6,1,12)             120.0043         estimate D2E/DX2                !
 ! A4    A(1,2,3)              120.0086         estimate D2E/DX2                !
 ! A5    A(1,2,7)              119.9808         estimate D2E/DX2                !
 ! A6    A(3,2,7)              120.0106         estimate D2E/DX2                !
 ! A7    A(2,3,4)              119.9942         estimate D2E/DX2                !
 ! A8    A(2,3,14)             120.0128         estimate D2E/DX2                !
 ! A9    A(4,3,14)             119.993          estimate D2E/DX2                !
 ! A10   A(3,4,5)              119.994          estimate D2E/DX2                !
 ! A11   A(3,4,8)              119.9811         estimate D2E/DX2                !
 ! A12   A(5,4,8)              120.0249         estimate D2E/DX2                !
 ! A13   A(4,5,6)              120.0047         estimate D2E/DX2                !
 ! A14   A(4,5,10)             120.0113         estimate D2E/DX2                !
 ! A15   A(6,5,10)             119.984          estimate D2E/DX2                !
 ! A16   A(1,6,5)              120.0            estimate D2E/DX2                !
 ! A17   A(1,6,9)              120.008          estimate D2E/DX2                !
 ! A18   A(5,6,9)              119.992          estimate D2E/DX2                !
 ! A19   A(5,10,11)            109.5            estimate D2E/DX2                !
 ! A20   A(1,12,13)            109.5            estimate D2E/DX2                !
 ! A21   A(3,14,15)            109.5            estimate D2E/DX2                !
 ! D1    D(6,1,2,3)              0.0323         estimate D2E/DX2                !
 ! D2    D(6,1,2,7)            179.9532         estimate D2E/DX2                !
 ! D3    D(12,1,2,3)          -179.9729         estimate D2E/DX2                !
 ! D4    D(12,1,2,7)            -0.052          estimate D2E/DX2                !
 ! D5    D(2,1,6,5)              0.0149         estimate D2E/DX2                !
 ! D6    D(2,1,6,9)            179.9892         estimate D2E/DX2                !
 ! D7    D(12,1,6,5)          -179.9798         estimate D2E/DX2                !
 ! D8    D(12,1,6,9)            -0.0056         estimate D2E/DX2                !
 ! D9    D(2,1,12,13)           72.1898         estimate D2E/DX2                !
 ! D10   D(6,1,12,13)         -107.8154         estimate D2E/DX2                !
 ! D11   D(1,2,3,4)             -0.0568         estimate D2E/DX2                !
 ! D12   D(1,2,3,14)           179.9619         estimate D2E/DX2                !
 ! D13   D(7,2,3,4)           -179.9777         estimate D2E/DX2                !
 ! D14   D(7,2,3,14)             0.041          estimate D2E/DX2                !
 ! D15   D(2,3,4,5)              0.0341         estimate D2E/DX2                !
 ! D16   D(2,3,4,8)           -179.9964         estimate D2E/DX2                !
 ! D17   D(14,3,4,5)          -179.9846         estimate D2E/DX2                !
 ! D18   D(14,3,4,8)            -0.0151         estimate D2E/DX2                !
 ! D19   D(2,3,14,15)           89.8778         estimate D2E/DX2                !
 ! D20   D(4,3,14,15)          -90.1035         estimate D2E/DX2                !
 ! D21   D(3,4,5,6)              0.0131         estimate D2E/DX2                !
 ! D22   D(3,4,5,10)          -179.9995         estimate D2E/DX2                !
 ! D23   D(8,4,5,6)           -179.9563         estimate D2E/DX2                !
 ! D24   D(8,4,5,10)             0.0311         estimate D2E/DX2                !
 ! D25   D(4,5,6,1)             -0.0376         estimate D2E/DX2                !
 ! D26   D(4,5,6,9)            179.9881         estimate D2E/DX2                !
 ! D27   D(10,5,6,1)           179.975          estimate D2E/DX2                !
 ! D28   D(10,5,6,9)             0.0007         estimate D2E/DX2                !
 ! D29   D(4,5,10,11)           89.9317         estimate D2E/DX2                !
 ! D30   D(6,5,10,11)          -90.0809         estimate D2E/DX2                !
 --------------------------------------------------------------------------------
 Trust Radius=3.00D-01 FncErr=1.00D-07 GrdErr=1.00D-06
 Number of steps in this run=     76 maximum allowed number of steps=    100.
 GradGradGradGradGradGradGradGradGradGradGradGradGradGradGradGradGradGrad

 Leave Link  103 at Wed Jul 03 13:39:33 2019, MaxMem=   33554432 cpu:       0.0
 (Enter C:\Program Files\G09W\l202.exe)
                          Input orientation:                          
 ---------------------------------------------------------------------
 Center     Atomic      Atomic             Coordinates (Angstroms)
 Number     Number       Type             X           Y           Z
 ---------------------------------------------------------------------
      1          6           0        2.398527   -0.708163    0.836547
      2          6           0        3.793687   -0.708163    0.836547
      3          6           0        4.491225    0.499588    0.836547
      4          6           0        3.793571    1.708097    0.835348
      5          6           0        2.398746    1.708019    0.834869
      6          6           0        1.701145    0.499813    0.835865
      7          1           0        4.343195   -1.660676    0.837862
      8          1           0        4.343771    2.660240    0.835289
      9          1           0        0.601541    0.499996    0.835685
     10          8           0        1.683432    2.946254    0.833630
     11          1           0        1.524380    3.223548   -0.071583
     12          8           0        1.683587   -1.946614    0.837132
     13          1           0        1.763085   -2.362118    1.698896
     14          8           0        5.921225    0.499692    0.837371
     15          1           0        6.242201    0.497484   -0.067377
 ---------------------------------------------------------------------
                    Distance matrix (angstroms):
                    1          2          3          4          5
     1  C    0.000000
     2  C    1.395160   0.000000
     3  C    2.416205   1.394712   0.000000
     4  C    2.790065   2.416260   1.395427   0.000000
     5  C    2.416183   2.789946   2.416356   1.394825   0.000000
     6  C    1.394829   2.416183   2.790080   2.416236   1.395138
     7  H    2.165414   1.099655   2.165330   3.413316   3.889601
     8  H    3.889745   3.413024   2.165678   1.099680   2.165606
     9  H    2.165365   3.413128   3.889684   3.412999   2.165471
    10  O    3.723725   4.219946   3.724229   2.446573   1.430000
    11  H    4.128824   4.629558   4.128781   2.875473   1.970533
    12  O    1.430000   2.446688   3.723806   4.220065   3.723949
    13  H    1.970533   2.757274   4.046697   4.629821   4.209112
    14  O    3.724019   2.446494   1.430000   2.446867   3.723965
    15  H    4.128498   2.875045   1.970533   2.876853   4.129357
                    6          7          8          9         10
     6  C    0.000000
     7  H    3.412938   0.000000
     8  H    3.413344   4.320917   0.000000
     9  H    1.099604   4.320704   4.320988   0.000000
    10  O    2.446505   5.319601   2.675670   2.674821   0.000000
    11  H    2.876359   5.712132   3.014747   3.015377   0.960000
    12  O    2.446490   2.674935   5.319745   2.675206   4.892868
    13  H    2.989868   2.808980   5.712254   3.207182   5.379019
    14  O    4.220080   2.675326   2.675132   5.319684   4.893318
    15  H    4.630015   3.013857   3.016017   5.712493   5.252681
                   11         12         13         14         15
    11  H    0.000000
    12  O    5.251827   0.000000
    13  H    5.864405   0.960000   0.000000
    14  O    5.251461   4.893055   5.120772   0.000000
    15  H    5.448788   5.250973   5.599958   0.960000   0.000000
 Symmetry turned off by external request.
 Stoichiometry    C6H6O3
 Framework group  C1[X(C6H6O3)]
 Deg. of freedom    39
 Full point group                 C1      NOp   1
 Rotational constants (GHZ):      1.7584673      1.7477946      0.8835466
 Leave Link  202 at Wed Jul 03 13:39:33 2019, MaxMem=   33554432 cpu:       0.0
 (Enter C:\Program Files\G09W\l301.exe)
 Standard basis: 6-311+G(d,p) (5D, 7F)
 Ernie: Thresh=  0.10000D-02 Tol=  0.10000D-05 Strict=F.
 Integral buffers will be    131072 words long.
 Raffenetti 2 integral format.
 Two-electron integral symmetry is turned off.
   234 basis functions,   372 primitive gaussians,   243 cartesian basis functions
    33 alpha electrons       33 beta electrons
       nuclear repulsion energy       420.6100640915 Hartrees.
 IExCor=20419 DFT=T Ex+Corr=CAM-B3LYP ExCW=0 ScaHFX=  1.000000
 ScaDFX=  1.000000  1.000000  1.000000  0.810000 ScalE2=  1.000000  1.000000
 IRadAn=      0 IRanWt=     -1 IRanGd=            0 ICorTp=0
  HFx wShort=  0.000000 wLong=  0.330000 cFull=  0.190000 cShort=  0.000000 cLong=  0.460000
  DFx wShort=  0.000000 wLong=  0.330000 cFull=  0.190000 cShort=  0.000000 cLong=  0.460000
 NAtoms=   15 NActive=   15 NUniq=   15 SFac= 1.00D+00 NAtFMM=   60 NAOKFM=F Big=F
 Leave Link  301 at Wed Jul 03 13:39:33 2019, MaxMem=   33554432 cpu:       0.0
 (Enter C:\Program Files\G09W\l302.exe)
 NPDir=0 NMtPBC=     1 NCelOv=     1 NCel=       1 NClECP=     1 NCelD=      1
         NCelK=      1 NCelE2=     1 NClLst=     1 CellRange=     0.0.
 One-electron integrals computed using PRISM.
 NBasis=   234 RedAO= T  NBF=   234
 NBsUse=   234 1.00D-06 NBFU=   234
 Precomputing XC quadrature grid using
 IXCGrd= 2 IRadAn=           0 IRanWt=          -1 IRanGd=           0 AccXCQ= 0.00D+00.
 NRdTot=     963 NPtTot=      122736 NUsed=      129685 NTot=      129717
 NSgBfM=   243   243   243   243   243 NAtAll=    15    15.
 Leave Link  302 at Wed Jul 03 13:39:34 2019, MaxMem=   33554432 cpu:       0.0
 (Enter C:\Program Files\G09W\l303.exe)
 DipDrv:  MaxL=1.
 Leave Link  303 at Wed Jul 03 13:39:34 2019, MaxMem=   33554432 cpu:       0.0
 (Enter C:\Program Files\G09W\l401.exe)
 Harris functional with IExCor=20419 diagonalized for initial guess.
 ExpMin= 4.38D-02 ExpMax= 8.59D+03 ExpMxC= 1.30D+03 IAcc=2 IRadAn=         4 AccDes= 0.00D+00
 HarFok:  IExCor=20419 AccDes= 0.00D+00 IRadAn=         4 IDoV= 1
 ScaDFX=  1.000000  1.000000  1.000000  1.000000
 FoFCou: FMM=F IPFlag=           0 FMFlag=      100000 FMFlg1=           0
         NFxFlg=           0 DoJE=T BraDBF=F KetDBF=T FulRan=T
         Omega=  0.000000  0.000000  1.000000  0.000000  0.000000 ICntrl=     500 IOpCl=  0
         NMat0=    1 NMatS0=    1 NMatT0=    0 NMatD0=    1 NMtDS0=    0 NMtDT0=    0
         I1Cent=           4 NGrid=           0.
 Symmetry not used in FoFCou.
 Harris En= -441.440149878064    
 Leave Link  401 at Wed Jul 03 13:39:43 2019, MaxMem=   33554432 cpu:       8.0
 (Enter C:\Program Files\G09W\l502.exe)
 Closed shell SCF:
 Requested convergence on RMS density matrix=1.00D-08 within  64 cycles.
 Requested convergence on MAX density matrix=1.00D-06.
 Requested convergence on             energy=1.00D-06.
 No special actions if energy rises.
 Using DIIS extrapolation, IDIIS=  1040.
 Two-electron integral symmetry not used.
       129537 words used for storage of precomputed grid.
 IEnd=      315168 IEndB=      315168 NGot=    33554432 MDV=    33302781
 LenX=    33302781 LenY=    33243291
 Fock matrices will be formed incrementally for  20 cycles.

 Cycle   1  Pass 1  IDiag  1:
 FoFJK:  IHMeth= 1 ICntrl=     0 DoSepK=T KAlg= 1 I1Cent= 0 FoldK=F
 FoFCou: FMM=F IPFlag=           0 FMFlag=      100000 FMFlg1=           0
         NFxFlg=           0 DoJE=T BraDBF=F KetDBF=F FulRan=T
         Omega=  0.000000  0.000000  1.000000  0.000000  0.000000 ICntrl=     500 IOpCl=  0
         NMat0=    1 NMatS0=    1 NMatT0=    0 NMatD0=    1 NMtDS0=    0 NMtDT0=    0
         I1Cent=           0 NGrid=           0.
 Symmetry not used in FoFCou.
 E= -457.693388762230    
 DIIS: error= 7.09D-02 at cycle   1 NSaved=   1.
 NSaved= 1 IEnMin= 1 EnMin= -457.693388762230     IErMin= 1 ErrMin= 7.09D-02
 ErrMax= 7.09D-02 EMaxC= 1.00D-01 BMatC= 7.73D-01 BMatP= 7.73D-01
 IDIUse=3 WtCom= 2.91D-01 WtEn= 7.09D-01
 Coeff-Com:  0.100D+01
 Coeff-En:   0.100D+01
 Coeff:      0.100D+01
 Gap=     0.343 Goal=   None    Shift=    0.000
 GapD=    0.343 DampG=1.000 DampE=0.500 DampFc=0.5000 IDamp=-1.
 Damping current iteration by 5.00D-01
 RMSDP=2.08D-02 MaxDP=1.66D+00              OVMax= 1.44D-01

 Cycle   2  Pass 1  IDiag  1:
 RMSU=  3.53D-03    CP:  8.04D-01
 FoFJK:  IHMeth= 1 ICntrl=     0 DoSepK=T KAlg= 1 I1Cent= 0 FoldK=F
 E= -457.755644587249     Delta-E=       -0.062255825018 Rises=F Damp=T
 DIIS: error= 3.26D-02 at cycle   2 NSaved=   2.
 NSaved= 2 IEnMin= 2 EnMin= -457.755644587249     IErMin= 2 ErrMin= 3.26D-02
 ErrMax= 3.26D-02 EMaxC= 1.00D-01 BMatC= 1.49D-01 BMatP= 7.73D-01
 IDIUse=3 WtCom= 6.74D-01 WtEn= 3.26D-01
 Coeff-Com: -0.483D+00 0.148D+01
 Coeff-En:   0.000D+00 0.100D+01
 Coeff:     -0.326D+00 0.133D+01
 Gap=     0.343 Goal=   None    Shift=    0.000
 RMSDP=1.09D-02 MaxDP=7.85D-01 DE=-6.23D-02 OVMax= 9.36D-02

 Cycle   3  Pass 1  IDiag  1:
 RMSU=  3.41D-03    CP:  6.37D-01  2.19D+00
 FoFJK:  IHMeth= 1 ICntrl=     0 DoSepK=T KAlg= 1 I1Cent= 0 FoldK=F
 E= -457.797924268170     Delta-E=       -0.042279680921 Rises=F Damp=F
 DIIS: error= 1.80D-02 at cycle   3 NSaved=   3.
 NSaved= 3 IEnMin= 3 EnMin= -457.797924268170     IErMin= 3 ErrMin= 1.80D-02
 ErrMax= 1.80D-02 EMaxC= 1.00D-01 BMatC= 4.29D-02 BMatP= 1.49D-01
 IDIUse=3 WtCom= 8.20D-01 WtEn= 1.80D-01
 Coeff-Com: -0.316D+00 0.693D+00 0.623D+00
 Coeff-En:   0.000D+00 0.000D+00 0.100D+01
 Coeff:     -0.259D+00 0.568D+00 0.691D+00
 Gap=     0.337 Goal=   None    Shift=    0.000
 RMSDP=4.64D-03 MaxDP=3.64D-01 DE=-4.23D-02 OVMax= 3.54D-02

 Cycle   4  Pass 1  IDiag  1:
 RMSU=  9.64D-04    CP:  5.59D-01  2.13D+00  4.79D-01
 FoFJK:  IHMeth= 1 ICntrl=     0 DoSepK=T KAlg= 1 I1Cent= 0 FoldK=F
 E= -457.825257475400     Delta-E=       -0.027333207231 Rises=F Damp=F
 DIIS: error= 4.94D-03 at cycle   4 NSaved=   4.
 NSaved= 4 IEnMin= 4 EnMin= -457.825257475400     IErMin= 4 ErrMin= 4.94D-03
 ErrMax= 4.94D-03 EMaxC= 1.00D-01 BMatC= 4.42D-03 BMatP= 4.29D-02
 IDIUse=3 WtCom= 9.51D-01 WtEn= 4.94D-02
 Coeff-Com: -0.118D+00 0.258D+00 0.371D+00 0.489D+00
 Coeff-En:   0.000D+00 0.000D+00 0.254D-01 0.975D+00
 Coeff:     -0.112D+00 0.246D+00 0.354D+00 0.513D+00
 Gap=     0.330 Goal=   None    Shift=    0.000
 RMSDP=8.80D-04 MaxDP=4.99D-02 DE=-2.73D-02 OVMax= 8.24D-03

 Cycle   5  Pass 1  IDiag  1:
 RMSU=  1.79D-04    CP:  5.67D-01  2.20D+00  6.07D-01  8.05D-01
 FoFJK:  IHMeth= 1 ICntrl=     0 DoSepK=T KAlg= 1 I1Cent= 0 FoldK=F
 E= -457.828155335690     Delta-E=       -0.002897860290 Rises=F Damp=F
 DIIS: error= 4.38D-04 at cycle   5 NSaved=   5.
 NSaved= 5 IEnMin= 5 EnMin= -457.828155335690     IErMin= 5 ErrMin= 4.38D-04
 ErrMax= 4.38D-04 EMaxC= 1.00D-01 BMatC= 3.77D-05 BMatP= 4.42D-03
 IDIUse=3 WtCom= 9.96D-01 WtEn= 4.38D-03
 Coeff-Com:  0.210D-02-0.484D-02 0.367D-01 0.159D+00 0.807D+00
 Coeff-En:   0.000D+00 0.000D+00 0.000D+00 0.000D+00 0.100D+01
 Coeff:      0.209D-02-0.482D-02 0.365D-01 0.158D+00 0.808D+00
 Gap=     0.330 Goal=   None    Shift=    0.000
 RMSDP=3.69D-04 MaxDP=3.34D-02 DE=-2.90D-03 OVMax= 8.77D-04

 Cycle   6  Pass 1  IDiag  1:
 RMSU=  3.30D-05    CP:  5.59D-01  2.22D+00  6.06D-01  8.79D-01  1.16D+00
 FoFJK:  IHMeth= 1 ICntrl=     0 DoSepK=T KAlg= 1 I1Cent= 0 FoldK=F
 E= -457.828188439003     Delta-E=       -0.000033103313 Rises=F Damp=F
 DIIS: error= 7.04D-05 at cycle   6 NSaved=   6.
 NSaved= 6 IEnMin= 6 EnMin= -457.828188439003     IErMin= 6 ErrMin= 7.04D-05
 ErrMax= 7.04D-05 EMaxC= 1.00D-01 BMatC= 9.31D-07 BMatP= 3.77D-05
 IDIUse=1 WtCom= 1.00D+00 WtEn= 0.00D+00
 Coeff-Com:  0.956D-02-0.206D-01-0.196D-01-0.104D-01 0.507D-01 0.990D+00
 Coeff:      0.956D-02-0.206D-01-0.196D-01-0.104D-01 0.507D-01 0.990D+00
 Gap=     0.330 Goal=   None    Shift=    0.000
 RMSDP=1.32D-04 MaxDP=1.16D-02 DE=-3.31D-05 OVMax= 8.75D-04

 Cycle   7  Pass 1  IDiag  1:
 RMSU=  8.44D-06    CP:  5.57D-01  2.22D+00  6.07D-01  9.08D-01  1.26D+00
                    CP:  1.16D+00
 FoFJK:  IHMeth= 1 ICntrl=     0 DoSepK=T KAlg= 1 I1Cent= 0 FoldK=F
 E= -457.828190578812     Delta-E=       -0.000002139809 Rises=F Damp=F
 DIIS: error= 2.82D-05 at cycle   7 NSaved=   7.
 NSaved= 7 IEnMin= 7 EnMin= -457.828190578812     IErMin= 7 ErrMin= 2.82D-05
 ErrMax= 2.82D-05 EMaxC= 1.00D-01 BMatC= 1.52D-07 BMatP= 9.31D-07
 IDIUse=1 WtCom= 1.00D+00 WtEn= 0.00D+00
 Coeff-Com:  0.136D-02-0.286D-02-0.283D-02-0.373D-02-0.485D-01 0.163D+00
 Coeff-Com:  0.893D+00
 Coeff:      0.136D-02-0.286D-02-0.283D-02-0.373D-02-0.485D-01 0.163D+00
 Coeff:      0.893D+00
 Gap=     0.330 Goal=   None    Shift=    0.000
 RMSDP=1.50D-05 MaxDP=1.01D-03 DE=-2.14D-06 OVMax= 2.67D-04

 Cycle   8  Pass 1  IDiag  1:
 RMSU=  4.18D-06    CP:  5.57D-01  2.22D+00  6.07D-01  9.10D-01  1.29D+00
                    CP:  1.19D+00  9.53D-01
 FoFJK:  IHMeth= 1 ICntrl=     0 DoSepK=T KAlg= 1 I1Cent= 0 FoldK=F
 E= -457.828190788287     Delta-E=       -0.000000209476 Rises=F Damp=F
 DIIS: error= 1.22D-05 at cycle   8 NSaved=   8.
 NSaved= 8 IEnMin= 8 EnMin= -457.828190788287     IErMin= 8 ErrMin= 1.22D-05
 ErrMax= 1.22D-05 EMaxC= 1.00D-01 BMatC= 3.99D-08 BMatP= 1.52D-07
 IDIUse=1 WtCom= 1.00D+00 WtEn= 0.00D+00
 Coeff-Com: -0.479D-03 0.109D-02 0.138D-02 0.484D-03-0.353D-01-0.521D-01
 Coeff-Com:  0.411D+00 0.674D+00
 Coeff:     -0.479D-03 0.109D-02 0.138D-02 0.484D-03-0.353D-01-0.521D-01
 Coeff:      0.411D+00 0.674D+00
 Gap=     0.330 Goal=   None    Shift=    0.000
 RMSDP=3.05D-06 MaxDP=1.58D-04 DE=-2.09D-07 OVMax= 1.21D-04

 Cycle   9  Pass 1  IDiag  1:
 RMSU=  1.48D-06    CP:  5.57D-01  2.22D+00  6.07D-01  9.09D-01  1.29D+00
                    CP:  1.22D+00  1.04D+00  9.13D-01
 FoFJK:  IHMeth= 1 ICntrl=     0 DoSepK=T KAlg= 1 I1Cent= 0 FoldK=F
 E= -457.828190837517     Delta-E=       -0.000000049230 Rises=F Damp=F
 DIIS: error= 4.49D-06 at cycle   9 NSaved=   9.
 NSaved= 9 IEnMin= 9 EnMin= -457.828190837517     IErMin= 9 ErrMin= 4.49D-06
 ErrMax= 4.49D-06 EMaxC= 1.00D-01 BMatC= 5.01D-09 BMatP= 3.99D-08
 IDIUse=1 WtCom= 1.00D+00 WtEn= 0.00D+00
 Coeff-Com: -0.300D-03 0.662D-03 0.996D-03 0.117D-02-0.758D-02-0.420D-01
 Coeff-Com:  0.164D-01 0.260D+00 0.771D+00
 Coeff:     -0.300D-03 0.662D-03 0.996D-03 0.117D-02-0.758D-02-0.420D-01
 Coeff:      0.164D-01 0.260D+00 0.771D+00
 Gap=     0.330 Goal=   None    Shift=    0.000
 RMSDP=1.84D-06 MaxDP=1.46D-04 DE=-4.92D-08 OVMax= 4.69D-05

 Cycle  10  Pass 1  IDiag  1:
 RMSU=  6.72D-07    CP:  5.57D-01  2.22D+00  6.07D-01  9.09D-01  1.28D+00
                    CP:  1.22D+00  1.06D+00  9.84D-01  1.11D+00
 FoFJK:  IHMeth= 1 ICntrl=     0 DoSepK=T KAlg= 1 I1Cent= 0 FoldK=F
 E= -457.828190844568     Delta-E=       -0.000000007051 Rises=F Damp=F
 DIIS: error= 1.36D-06 at cycle  10 NSaved=  10.
 NSaved=10 IEnMin=10 EnMin= -457.828190844568     IErMin=10 ErrMin= 1.36D-06
 ErrMax= 1.36D-06 EMaxC= 1.00D-01 BMatC= 4.30D-10 BMatP= 5.01D-09
 IDIUse=1 WtCom= 1.00D+00 WtEn= 0.00D+00
 Coeff-Com: -0.148D-04 0.281D-04 0.164D-03 0.446D-03 0.252D-02-0.487D-02
 Coeff-Com: -0.551D-01-0.292D-01 0.218D+00 0.868D+00
 Coeff:     -0.148D-04 0.281D-04 0.164D-03 0.446D-03 0.252D-02-0.487D-02
 Coeff:     -0.551D-01-0.292D-01 0.218D+00 0.868D+00
 Gap=     0.330 Goal=   None    Shift=    0.000
 RMSDP=1.26D-06 MaxDP=1.19D-04 DE=-7.05D-09 OVMax= 1.45D-05

 Cycle  11  Pass 1  IDiag  1:
 RMSU=  1.17D-07    CP:  5.57D-01  2.22D+00  6.07D-01  9.09D-01  1.28D+00
                    CP:  1.22D+00  1.06D+00  1.02D+00  1.23D+00  1.04D+00
 FoFJK:  IHMeth= 1 ICntrl=     0 DoSepK=T KAlg= 1 I1Cent= 0 FoldK=F
 E= -457.828190845235     Delta-E=       -0.000000000667 Rises=F Damp=F
 DIIS: error= 2.62D-07 at cycle  11 NSaved=  11.
 NSaved=11 IEnMin=11 EnMin= -457.828190845235     IErMin=11 ErrMin= 2.62D-07
 ErrMax= 2.62D-07 EMaxC= 1.00D-01 BMatC= 1.49D-11 BMatP= 4.30D-10
 IDIUse=1 WtCom= 1.00D+00 WtEn= 0.00D+00
 Coeff-Com:  0.226D-04-0.497D-04-0.313D-04 0.539D-04 0.997D-03 0.185D-02
 Coeff-Com: -0.136D-01-0.206D-01 0.797D-02 0.184D+00 0.840D+00
 Coeff:      0.226D-04-0.497D-04-0.313D-04 0.539D-04 0.997D-03 0.185D-02
 Coeff:     -0.136D-01-0.206D-01 0.797D-02 0.184D+00 0.840D+00
 Gap=     0.330 Goal=   None    Shift=    0.000
 RMSDP=2.43D-07 MaxDP=1.61D-05 DE=-6.67D-10 OVMax= 1.98D-06

 Cycle  12  Pass 1  IDiag  1:
 RMSU=  3.51D-08    CP:  5.57D-01  2.22D+00  6.07D-01  9.09D-01  1.28D+00
                    CP:  1.22D+00  1.06D+00  1.01D+00  1.25D+00  1.11D+00
                    CP:  1.12D+00
 FoFJK:  IHMeth= 1 ICntrl=     0 DoSepK=T KAlg= 1 I1Cent= 0 FoldK=F
 E= -457.828190845263     Delta-E=       -0.000000000028 Rises=F Damp=F
 DIIS: error= 7.58D-08 at cycle  12 NSaved=  12.
 NSaved=12 IEnMin=12 EnMin= -457.828190845263     IErMin=12 ErrMin= 7.58D-08
 ErrMax= 7.58D-08 EMaxC= 1.00D-01 BMatC= 2.26D-12 BMatP= 1.49D-11
 IDIUse=1 WtCom= 1.00D+00 WtEn= 0.00D+00
 Coeff-Com:  0.595D-05-0.127D-04-0.187D-04-0.171D-04 0.571D-05 0.851D-03
 Coeff-Com:  0.180D-02-0.213D-02-0.200D-01-0.419D-01 0.279D+00 0.783D+00
 Coeff:      0.595D-05-0.127D-04-0.187D-04-0.171D-04 0.571D-05 0.851D-03
 Coeff:      0.180D-02-0.213D-02-0.200D-01-0.419D-01 0.279D+00 0.783D+00
 Gap=     0.330 Goal=   None    Shift=    0.000
 RMSDP=6.13D-08 MaxDP=5.14D-06 DE=-2.83D-11 OVMax= 5.77D-07

 Cycle  13  Pass 1  IDiag  1:
 RMSU=  9.62D-09    CP:  5.57D-01  2.22D+00  6.07D-01  9.09D-01  1.28D+00
                    CP:  1.22D+00  1.06D+00  1.01D+00  1.25D+00  1.12D+00
                    CP:  1.20D+00  8.79D-01
 FoFJK:  IHMeth= 1 ICntrl=     0 DoSepK=T KAlg= 1 I1Cent= 0 FoldK=F
 E= -457.828190845254     Delta-E=        0.000000000009 Rises=F Damp=F
 DIIS: error= 2.21D-08 at cycle  13 NSaved=  13.
 NSaved=13 IEnMin=12 EnMin= -457.828190845263     IErMin=13 ErrMin= 2.21D-08
 ErrMax= 2.21D-08 EMaxC= 1.00D-01 BMatC= 2.37D-13 BMatP= 2.26D-12
 IDIUse=1 WtCom= 1.00D+00 WtEn= 0.00D+00
 Coeff-Com:  0.967D-06-0.195D-05-0.521D-05-0.965D-05-0.648D-04 0.196D-03
 Coeff-Com:  0.166D-02 0.626D-03-0.861D-02-0.302D-01 0.568D-01 0.320D+00
 Coeff-Com:  0.660D+00
 Coeff:      0.967D-06-0.195D-05-0.521D-05-0.965D-05-0.648D-04 0.196D-03
 Coeff:      0.166D-02 0.626D-03-0.861D-02-0.302D-01 0.568D-01 0.320D+00
 Coeff:      0.660D+00
 Gap=     0.330 Goal=   None    Shift=    0.000
 RMSDP=1.03D-08 MaxDP=8.44D-07 DE= 9.21D-12 OVMax= 1.49D-07

 Cycle  14  Pass 1  IDiag  1:
 RMSU=  3.39D-09    CP:  5.57D-01  2.22D+00  6.07D-01  9.09D-01  1.28D+00
                    CP:  1.22D+00  1.06D+00  1.01D+00  1.25D+00  1.12D+00
                    CP:  1.22D+00  9.22D-01  1.02D+00
 FoFJK:  IHMeth= 1 ICntrl=     0 DoSepK=T KAlg= 1 I1Cent= 0 FoldK=F
 E= -457.828190845272     Delta-E=       -0.000000000018 Rises=F Damp=F
 DIIS: error= 1.07D-08 at cycle  14 NSaved=  14.
 NSaved=14 IEnMin=14 EnMin= -457.828190845272     IErMin=14 ErrMin= 1.07D-08
 ErrMax= 1.07D-08 EMaxC= 1.00D-01 BMatC= 3.05D-14 BMatP= 2.37D-13
 IDIUse=1 WtCom= 1.00D+00 WtEn= 0.00D+00
 Coeff-Com: -0.371D-08 0.386D-07-0.279D-06-0.181D-05-0.219D-04-0.179D-04
 Coeff-Com:  0.402D-03 0.465D-03-0.839D-03-0.616D-02-0.142D-01 0.253D-01
 Coeff-Com:  0.275D+00 0.720D+00
 Coeff:     -0.371D-08 0.386D-07-0.279D-06-0.181D-05-0.219D-04-0.179D-04
 Coeff:      0.402D-03 0.465D-03-0.839D-03-0.616D-02-0.142D-01 0.253D-01
 Coeff:      0.275D+00 0.720D+00
 Gap=     0.330 Goal=   None    Shift=    0.000
 RMSDP=4.99D-09 MaxDP=4.52D-07 DE=-1.78D-11 OVMax= 5.17D-08

 SCF Done:  E(RCAM-B3LYP) =  -457.828190845     A.U. after   14 cycles
             Convg  =    0.4993D-08             -V/T =  2.0040
 KE= 4.560015514632D+02 PE=-1.913684097037D+03 EE= 5.792442906368D+02
 Leave Link  502 at Wed Jul 03 13:44:58 2019, MaxMem=   33554432 cpu:     315.0
 (Enter C:\Program Files\G09W\l508.exe)
 QCSCF skips out because SCF is already converged.
 Leave Link  508 at Wed Jul 03 13:44:58 2019, MaxMem=   33554432 cpu:       0.0
 (Enter C:\Program Files\G09W\l601.exe)
 Copying SCF densities to generalized density rwf, IOpCl= 0 IROHF=0.

 **********************************************************************

            Population analysis using the SCF density.

 **********************************************************************

 Alpha  occ. eigenvalues --  -19.22520 -19.22453 -19.22387 -10.32799 -10.32767
 Alpha  occ. eigenvalues --  -10.32728 -10.26360 -10.26288 -10.26270  -1.13183
 Alpha  occ. eigenvalues --   -1.12834  -1.12777  -0.94988  -0.83787  -0.83752
 Alpha  occ. eigenvalues --   -0.70720  -0.70401  -0.64558  -0.58891  -0.58267
 Alpha  occ. eigenvalues --   -0.57885  -0.57507  -0.50958  -0.49527  -0.49013
 Alpha  occ. eigenvalues --   -0.46369  -0.45974  -0.42217  -0.39534  -0.39304
 Alpha  occ. eigenvalues --   -0.37507  -0.31692  -0.31506
 Alpha virt. eigenvalues --    0.01458   0.01848   0.02453   0.03399   0.03746
 Alpha virt. eigenvalues --    0.06382   0.06440   0.07097   0.08042   0.10795
 Alpha virt. eigenvalues --    0.10925   0.11398   0.12871   0.14252   0.14466
 Alpha virt. eigenvalues --    0.15407   0.16136   0.16248   0.16506   0.16529
 Alpha virt. eigenvalues --    0.16780   0.18759   0.19574   0.19590   0.21248
 Alpha virt. eigenvalues --    0.22290   0.23249   0.23444   0.23551   0.24520
 Alpha virt. eigenvalues --    0.24717   0.25351   0.25992   0.27002   0.28446
 Alpha virt. eigenvalues --    0.28526   0.30020   0.31865   0.32697   0.33336
 Alpha virt. eigenvalues --    0.35289   0.35394   0.35871   0.36131   0.36372
 Alpha virt. eigenvalues --    0.36505   0.39230   0.39291   0.41879   0.42259
 Alpha virt. eigenvalues --    0.47650   0.47696   0.51560   0.53537   0.55257
 Alpha virt. eigenvalues --    0.56747   0.57359   0.60703   0.60898   0.61765
 Alpha virt. eigenvalues --    0.63191   0.63606   0.64854   0.68434   0.69032
 Alpha virt. eigenvalues --    0.69356   0.73881   0.74625   0.74952   0.75549
 Alpha virt. eigenvalues --    0.81435   0.83486   0.84991   0.85168   0.85418
 Alpha virt. eigenvalues --    0.90252   0.94426   0.94601   0.96339   0.96714
 Alpha virt. eigenvalues --    0.97183   1.02359   1.05241   1.05516   1.05695
 Alpha virt. eigenvalues --    1.08347   1.08528   1.15872   1.16392   1.16873
 Alpha virt. eigenvalues --    1.20014   1.20812   1.26643   1.27346   1.29121
 Alpha virt. eigenvalues --    1.30037   1.31047   1.34545   1.37422   1.43220
 Alpha virt. eigenvalues --    1.44612   1.45781   1.47124   1.54192   1.55152
 Alpha virt. eigenvalues --    1.57683   1.58821   1.62863   1.63268   1.64482
 Alpha virt. eigenvalues --    1.65789   1.67069   1.68564   1.70047   1.70710
 Alpha virt. eigenvalues --    1.76351   1.81300   1.81586   1.86833   1.87460
 Alpha virt. eigenvalues --    1.96398   1.96814   2.01917   2.02351   2.02759
 Alpha virt. eigenvalues --    2.03255   2.08508   2.09161   2.10137   2.10760
 Alpha virt. eigenvalues --    2.13678   2.16022   2.16554   2.22068   2.25104
 Alpha virt. eigenvalues --    2.25847   2.37636   2.48135   2.51146   2.51215
 Alpha virt. eigenvalues --    2.60628   2.65167   2.68037   2.71346   2.72278
 Alpha virt. eigenvalues --    2.75050   2.75972   2.79032   2.80471   2.81245
 Alpha virt. eigenvalues --    2.83701   2.87910   2.91582   2.92888   2.96592
 Alpha virt. eigenvalues --    3.08223   3.08345   3.12961   3.16782   3.18020
 Alpha virt. eigenvalues --    3.18296   3.18339   3.31598   3.32319   3.36788
 Alpha virt. eigenvalues --    3.37730   3.38885   3.40919   3.42828   3.44052
 Alpha virt. eigenvalues --    3.63113   3.64375   3.64543   3.71243   3.89638
 Alpha virt. eigenvalues --    3.90135   3.90878   4.11591   4.11668   4.16932
 Alpha virt. eigenvalues --    4.18752   4.19255   4.89084   5.17765   5.19093
 Alpha virt. eigenvalues --    5.19500   5.40589   5.41767   5.42143   5.70666
 Alpha virt. eigenvalues --    5.76851   5.77212  23.51427  23.93291  23.93472
 Alpha virt. eigenvalues --   24.10892  24.10959  24.21036  49.95361  49.97612
 Alpha virt. eigenvalues --   49.97785
          Condensed to atoms (all electrons):
              1          2          3          4          5          6
     1  C    7.128455   0.422552   0.286781  -0.656428   0.463971  -1.913823
     2  C    0.422552   9.427558  -1.144640  -1.699874  -0.428611  -0.630628
     3  C    0.286781  -1.144640   6.994326  -0.601399   0.595995  -0.427064
     4  C   -0.656428  -1.699874  -0.601399  10.073370  -0.739208  -0.439608
     5  C    0.463971  -0.428611   0.595995  -0.739208   6.857894  -1.072330
     6  C   -1.913823  -0.630628  -0.427064  -0.439608  -1.072330  10.359311
     7  H   -0.030803   0.431543   0.017620  -0.028618   0.016938  -0.039821
     8  H    0.017928  -0.026999  -0.001101   0.418442  -0.004795  -0.036025
     9  H    0.012074  -0.029792   0.016175  -0.035059  -0.000555   0.404693
    10  O   -0.010114   0.003549  -0.001111  -0.191577   0.486746  -0.214709
    11  H   -0.000157  -0.002264  -0.003417  -0.020030   0.040159  -0.009762
    12  O    0.487553  -0.157271   0.008122   0.010559   0.005785  -0.280235
    13  H   -0.022960  -0.044731   0.004934   0.001872  -0.015699   0.078344
    14  O    0.012370  -0.223648   0.493540  -0.228028   0.002399   0.017441
    15  H   -0.009276  -0.008870   0.039643  -0.009661  -0.002689  -0.005606
              7          8          9         10         11         12
     1  C   -0.030803   0.017928   0.012074  -0.010114  -0.000157   0.487553
     2  C    0.431543  -0.026999  -0.029792   0.003549  -0.002264  -0.157271
     3  C    0.017620  -0.001101   0.016175  -0.001111  -0.003417   0.008122
     4  C   -0.028618   0.418442  -0.035059  -0.191577  -0.020030   0.010559
     5  C    0.016938  -0.004795  -0.000555   0.486746   0.040159   0.005785
     6  C   -0.039821  -0.036025   0.404693  -0.214709  -0.009762  -0.280235
     7  H    0.493534  -0.000063  -0.000048   0.000060  -0.000004  -0.005782
     8  H   -0.000063   0.488885  -0.000047  -0.005146   0.000289   0.000065
     9  H   -0.000048  -0.000047   0.486450  -0.004638   0.000038  -0.003835
    10  O    0.000060  -0.005146  -0.004638   8.025123   0.272804  -0.001070
    11  H   -0.000004   0.000289   0.000038   0.272804   0.446583   0.000049
    12  O   -0.005782   0.000065  -0.003835  -0.001070   0.000049   8.029663
    13  H    0.000754  -0.000006  -0.000180   0.000020   0.000006   0.262556
    14  O   -0.004058  -0.004831   0.000052  -0.000676  -0.000002  -0.000658
    15  H   -0.000061   0.000242  -0.000003  -0.000008  -0.000001  -0.000059
             13         14         15
     1  C   -0.022960   0.012370  -0.009276
     2  C   -0.044731  -0.223648  -0.008870
     3  C    0.004934   0.493540   0.039643
     4  C    0.001872  -0.228028  -0.009661
     5  C   -0.015699   0.002399  -0.002689
     6  C    0.078344   0.017441  -0.005606
     7  H    0.000754  -0.004058  -0.000061
     8  H   -0.000006  -0.004831   0.000242
     9  H   -0.000180   0.000052  -0.000003
    10  O    0.000020  -0.000676  -0.000008
    11  H    0.000006  -0.000002  -0.000001
    12  O    0.262556  -0.000658  -0.000059
    13  H    0.462734   0.000005   0.000011
    14  O    0.000005   8.023141   0.273812
    15  H    0.000011   0.273812   0.446326
 Mulliken atomic charges:
              1
     1  C   -0.188123
     2  C    0.112125
     3  C   -0.278405
     4  C    0.145248
     5  C   -0.206002
     6  C    0.209821
     7  H    0.148807
     8  H    0.153160
     9  H    0.154676
    10  O   -0.359253
    11  H    0.275710
    12  O   -0.355442
    13  H    0.272340
    14  O   -0.360861
    15  H    0.276200
 Sum of Mulliken atomic charges =   0.00000
 Mulliken charges with hydrogens summed into heavy atoms:
              1
     1  C   -0.188123
     2  C    0.260932
     3  C   -0.278405
     4  C    0.298407
     5  C   -0.206002
     6  C    0.364496
    10  O   -0.083543
    12  O   -0.083102
    14  O   -0.084661
 Sum of Mulliken charges with hydrogens summed into heavy atoms =   0.00000
 Electronic spatial extent (au):  <R**2>=           3713.3441
 Charge=              0.0000 electrons
 Dipole moment (field-independent basis, Debye):
    X=              0.3666    Y=             -0.2480    Z=             -1.6391  Tot=              1.6978
 Quadrupole moment (field-independent basis, Debye-Ang):
   XX=            -51.4450   YY=            -51.1076   ZZ=            -52.9599
   XY=             -1.4671   XZ=             -9.7466   YZ=            -10.8113
 Traceless Quadrupole moment (field-independent basis, Debye-Ang):
   XX=              0.3925   YY=              0.7299   ZZ=             -1.1224
   XY=             -1.4671   XZ=             -9.7466   YZ=            -10.8113
 Octapole moment (field-independent basis, Debye-Ang**2):
  XXX=           -491.4301  YYY=            -83.2065  ZZZ=           -129.5760  XYY=           -152.2484
  XXY=            -30.0465  XXZ=           -109.6601  XZZ=           -171.5740  YZZ=            -42.6056
  YYZ=            -51.2286  XYZ=            -21.5125
 Hexadecapole moment (field-independent basis, Debye-Ang**3):
 XXXX=          -3812.8407 YYYY=           -789.8596 ZZZZ=           -274.9371 XXXY=           -253.3394
 XXXZ=           -844.3938 YYYX=           -248.1861 YYYZ=           -153.4139 ZZZX=           -411.2658
 ZZZY=            -86.2151 XXYY=           -713.0177 XXZZ=           -738.7472 YYZZ=           -174.0685
 XXYZ=            -79.2260 YYXZ=           -135.8794 ZZXY=           -112.5736
 N-N= 4.206100640915D+02 E-N=-1.913684095647D+03  KE= 4.560015514632D+02
 No NMR shielding tensors so no spin-rotation constants.
 Leave Link  601 at Wed Jul 03 13:44:58 2019, MaxMem=   33554432 cpu:       0.0
 (Enter C:\Program Files\G09W\l701.exe)
 Compute integral first derivatives.
 ... and contract with generalized density number  0.
 Leave Link  701 at Wed Jul 03 13:44:59 2019, MaxMem=   33554432 cpu:       0.0
 (Enter C:\Program Files\G09W\l702.exe)
 L702 exits ... SP integral derivatives will be done elsewhere.
 Leave Link  702 at Wed Jul 03 13:44:59 2019, MaxMem=   33554432 cpu:       0.0
 (Enter C:\Program Files\G09W\l703.exe)
 Compute integral first derivatives, UseDBF=F ICtDFT=           0.
 Integral derivatives from FoFDir, PRISM(SPDF).
 Calling FoFJK, ICntrl=      2127 FMM=F ISym2X=0 I1Cent= 0 IOpClX= 0 NMat=1 NMatS=1 NMatT=0.
 FoFJK:  IHMeth= 1 ICntrl=  2127 DoSepK=T KAlg= 1 I1Cent= 0 FoldK=F
 FoFCou: FMM=F IPFlag=           0 FMFlag=      100000 FMFlg1=         800
         NFxFlg=           0 DoJE=F BraDBF=F KetDBF=F FulRan=T
         Omega=  0.000000  0.000000  1.000000  0.000000  0.000000 ICntrl=    2527 IOpCl=  0
         NMat0=    1 NMatS0=    1 NMatT0=    0 NMatD0=    1 NMtDS0=    0 NMtDT0=    0
         I1Cent=           0 NGrid=           0.
 Symmetry not used in FoFCou.
 Leave Link  703 at Wed Jul 03 13:46:20 2019, MaxMem=   33554432 cpu:      81.0
 (Enter C:\Program Files\G09W\l716.exe)
 Dipole        = 1.44241439D-01-9.75580311D-02-6.44879555D-01
 -------------------------------------------------------------------
 Center     Atomic                   Forces (Hartrees/Bohr)
 Number     Number              X              Y              Z
 -------------------------------------------------------------------
      1        6          -0.004883986   -0.012887252    0.007506531
      2        6           0.006458647   -0.009577179    0.000873045
      3        6           0.012659868    0.000211705   -0.006567942
      4        6           0.006382826    0.010529119    0.002122306
      5        6          -0.006104326    0.010626048   -0.007725844
      6        6          -0.013251607   -0.000947128   -0.000602970
      7        1          -0.005137725    0.009800418   -0.000273585
      8        1          -0.005632887   -0.009773590    0.000312358
      9        1           0.011348689   -0.000256384    0.000440079
     10        8           0.016343281   -0.028118356    0.005733629
     11        1           0.000718307   -0.001586697   -0.001780550
     12        8           0.012560622    0.031343037   -0.005175955
     13        1           0.002565589    0.000727984    0.001387419
     14        8          -0.032317008   -0.000011951    0.005530148
     15        1          -0.001710289   -0.000079774   -0.001778669
 -------------------------------------------------------------------
 Cartesian Forces:  Max     0.032317008 RMS     0.010391843
 Leave Link  716 at Wed Jul 03 13:46:21 2019, MaxMem=   33554432 cpu:       0.0
 (Enter C:\Program Files\G09W\l103.exe)

 GradGradGradGradGradGradGradGradGradGradGradGradGradGradGradGradGradGrad
 Berny optimization.
 Internal  Forces:  Max     0.035339575 RMS     0.008702806
 Search for a local minimum.
 Step number   1 out of a maximum of   76
 All quantities printed in internal units (Hartrees-Bohrs-Radians)
 RMS Force = .87028D-02 SwitMx=.10000D-02 MixMth= 1
 Mixed Optimization -- RFO/linear search
 Second derivative matrix not updated -- first step.
 ITU=  0
     Eigenvalues ---    0.01295   0.01295   0.01295   0.01983   0.02006
     Eigenvalues ---    0.02007   0.02152   0.02153   0.02155   0.02155
     Eigenvalues ---    0.02156   0.02156   0.16000   0.16000   0.16000
     Eigenvalues ---    0.16000   0.16000   0.16000   0.23479   0.23479
     Eigenvalues ---    0.23500   0.25000   0.25000   0.25000   0.33718
     Eigenvalues ---    0.33720   0.33726   0.40989   0.40989   0.40989
     Eigenvalues ---    0.42394   0.42410   0.46412   0.46453   0.46466
     Eigenvalues ---    0.46497   0.55473   0.55473   0.55473
 RFO step:  Lambda=-1.33237094D-02 EMin= 1.29493780D-02
 Linear search not attempted -- first point.
 Iteration  1 RMS(Cart)=  0.04076700 RMS(Int)=  0.00055744
 Iteration  2 RMS(Cart)=  0.00056277 RMS(Int)=  0.00021973
 Iteration  3 RMS(Cart)=  0.00000040 RMS(Int)=  0.00021973
 Variable       Old X    -DE/DX   Delta X   Delta X   Delta X     New X
                                 (Linear)    (Quad)   (Total)
    R1        2.63647  -0.00925   0.00000  -0.01936  -0.01937   2.61710
    R2        2.63584  -0.01127   0.00000  -0.02359  -0.02359   2.61226
    R3        2.70231  -0.03534   0.00000  -0.08350  -0.08350   2.61881
    R4        2.63562  -0.01033   0.00000  -0.02155  -0.02157   2.61405
    R5        2.07805  -0.01106   0.00000  -0.03154  -0.03154   2.04650
    R6        2.63697  -0.01054   0.00000  -0.02207  -0.02207   2.61490
    R7        2.70231  -0.03403   0.00000  -0.08040  -0.08040   2.62191
    R8        2.63584  -0.01004   0.00000  -0.02101  -0.02100   2.61484
    R9        2.07809  -0.01128   0.00000  -0.03218  -0.03218   2.04591
   R10        2.63643  -0.01027   0.00000  -0.02153  -0.02151   2.61492
   R11        2.70231  -0.03426   0.00000  -0.08095  -0.08095   2.62136
   R12        2.07795  -0.01135   0.00000  -0.03237  -0.03237   2.04558
   R13        1.81414   0.00110   0.00000   0.00194   0.00194   1.81608
   R14        1.81414   0.00114   0.00000   0.00201   0.00201   1.81615
   R15        1.81414   0.00111   0.00000   0.00195   0.00195   1.81608
    A1        2.09437   0.00578   0.00000   0.02328   0.02313   2.11750
    A2        2.09435   0.00001   0.00000  -0.00063  -0.00096   2.09339
    A3        2.09447  -0.00579   0.00000  -0.02265  -0.02296   2.07151
    A4        2.09455  -0.00567   0.00000  -0.02271  -0.02261   2.07193
    A5        2.09406   0.00330   0.00000   0.01403   0.01398   2.10804
    A6        2.09458   0.00237   0.00000   0.00867   0.00862   2.10320
    A7        2.09429   0.00552   0.00000   0.02240   0.02217   2.11647
    A8        2.09462  -0.00291   0.00000  -0.01175  -0.01212   2.08250
    A9        2.09427  -0.00261   0.00000  -0.01063  -0.01101   2.08326
   A10        2.09429  -0.00579   0.00000  -0.02334  -0.02319   2.07110
   A11        2.09407   0.00288   0.00000   0.01159   0.01151   2.10557
   A12        2.09483   0.00291   0.00000   0.01174   0.01166   2.10648
   A13        2.09448   0.00607   0.00000   0.02430   0.02398   2.11845
   A14        2.09459  -0.00287   0.00000  -0.01151  -0.01206   2.08253
   A15        2.09411  -0.00321   0.00000  -0.01280  -0.01334   2.08077
   A16        2.09440  -0.00591   0.00000  -0.02393  -0.02378   2.07062
   A17        2.09453   0.00269   0.00000   0.01043   0.01035   2.10488
   A18        2.09426   0.00322   0.00000   0.01349   0.01340   2.10766
   A19        1.91114  -0.00404   0.00000  -0.02331  -0.02331   1.88782
   A20        1.91114  -0.00442   0.00000  -0.02548  -0.02548   1.88565
   A21        1.91114  -0.00400   0.00000  -0.02310  -0.02310   1.88803
    D1        0.00056   0.00045   0.00000   0.01362   0.01376   0.01432
    D2        3.14078   0.00031   0.00000   0.00950   0.00977  -3.13264
    D3       -3.14112  -0.00099   0.00000  -0.02918  -0.02957   3.11250
    D4       -0.00091  -0.00112   0.00000  -0.03330  -0.03356  -0.03447
    D5        0.00026  -0.00029   0.00000  -0.00890  -0.00908  -0.00882
    D6        3.14140   0.00000   0.00000  -0.00050  -0.00068   3.14073
    D7       -3.14124   0.00114   0.00000   0.03390   0.03371  -3.10753
    D8       -0.00010   0.00143   0.00000   0.04230   0.04212   0.04202
    D9        1.25995  -0.00043   0.00000  -0.02239  -0.02269   1.23726
   D10       -1.88173  -0.00187   0.00000  -0.06519  -0.06488  -1.94662
   D11       -0.00099   0.00003   0.00000   0.00114   0.00137   0.00037
   D12        3.14093  -0.00156   0.00000  -0.04648  -0.04640   3.09453
   D13       -3.14120   0.00016   0.00000   0.00526   0.00534  -3.13587
   D14        0.00072  -0.00143   0.00000  -0.04236  -0.04242  -0.04171
   D15        0.00060  -0.00066   0.00000  -0.02063  -0.02056  -0.01997
   D16       -3.14153  -0.00093   0.00000  -0.02785  -0.02791   3.11375
   D17       -3.14132   0.00092   0.00000   0.02697   0.02722  -3.11410
   D18       -0.00026   0.00065   0.00000   0.01975   0.01988   0.01961
   D19        1.56866   0.00073   0.00000   0.02138   0.02100   1.58966
   D20       -1.57260  -0.00086   0.00000  -0.02624  -0.02585  -1.59845
   D21        0.00023   0.00082   0.00000   0.02539   0.02548   0.02571
   D22       -3.14158  -0.00108   0.00000  -0.03187  -0.03214   3.10947
   D23       -3.14083   0.00110   0.00000   0.03261   0.03283  -3.10800
   D24        0.00054  -0.00081   0.00000  -0.02464  -0.02479  -0.02424
   D25       -0.00066  -0.00035   0.00000  -0.01061  -0.01093  -0.01158
   D26        3.14138  -0.00063   0.00000  -0.01901  -0.01935   3.12204
   D27        3.14116   0.00156   0.00000   0.04662   0.04663  -3.09540
   D28        0.00001   0.00127   0.00000   0.03823   0.03821   0.03822
   D29        1.56960   0.00110   0.00000   0.03431   0.03387   1.60347
   D30       -1.57221  -0.00080   0.00000  -0.02292  -0.02248  -1.59469
         Item               Value     Threshold  Converged?
 Maximum Force            0.035340     0.000450     NO 
 RMS     Force            0.008703     0.000300     NO 
 Maximum Displacement     0.124980     0.001800     NO 
 RMS     Displacement     0.041074     0.001200     NO 
 Predicted change in Energy=-7.056053D-03
 GradGradGradGradGradGradGradGradGradGradGradGradGradGradGradGradGradGrad

 Leave Link  103 at Wed Jul 03 13:46:21 2019, MaxMem=   33554432 cpu:       0.0
 (Enter C:\Program Files\G09W\l202.exe)
                          Input orientation:                          
 ---------------------------------------------------------------------
 Center     Atomic      Atomic             Coordinates (Angstroms)
 Number     Number       Type             X           Y           Z
 ---------------------------------------------------------------------
      1          6           0        2.406654   -0.688614    0.847797
      2          6           0        3.791372   -0.705769    0.832575
      3          6           0        4.470796    0.499087    0.818024
      4          6           0        3.793319    1.705643    0.818919
      5          6           0        2.409719    1.689995    0.810526
      6          6           0        1.702473    0.500820    0.831733
      7          1           0        4.334115   -1.642903    0.837034
      8          1           0        4.335297    2.642755    0.833383
      9          1           0        0.620059    0.500563    0.843101
     10          8           0        1.716562    2.890904    0.850155
     11          1           0        1.546174    3.168452   -0.054005
     12          8           0        1.699877   -1.880477    0.827636
     13          1           0        1.814647   -2.309013    1.680180
     14          8           0        5.857628    0.497546    0.859603
     15          1           0        6.184630    0.488010   -0.044033
 ---------------------------------------------------------------------
                    Distance matrix (angstroms):
                    1          2          3          4          5
     1  C    0.000000
     2  C    1.384908   0.000000
     3  C    2.381639   1.383296   0.000000
     4  C    2.766974   2.411452   1.383746   0.000000
     5  C    2.378903   2.765707   2.380411   1.383714   0.000000
     6  C    1.382347   2.412334   2.768357   2.413172   1.383756
     7  H    2.150788   1.082963   2.146431   3.391983   3.848663
     8  H    3.849402   3.392414   2.148001   1.082649   2.148518
     9  H    2.146179   3.393018   3.850819   3.394463   2.149114
    10  O    3.645433   4.152253   3.647962   2.391389   1.387163
    11  H    4.053472   4.564705   4.054548   2.819835   1.918062
    12  O    1.385812   2.398815   3.652453   4.152449   3.640389
    13  H    1.915470   2.682585   3.960286   4.557891   4.135513
    14  O    3.649155   2.391257   1.387456   2.392180   3.648619
    15  H    4.056218   2.814469   1.918460   2.818809   4.052776
                    6          7          8          9         10
     6  C    0.000000
     7  H    3.394277   0.000000
     8  H    3.394061   4.285659   0.000000
     9  H    1.082474   4.288204   4.288599   0.000000
    10  O    2.390196   5.235185   2.630520   2.629848   0.000000
    11  H    2.815177   5.631670   2.973723   2.963127   0.961026
    12  O    2.381302   2.644946   5.234988   2.614497   4.771463
    13  H    2.937279   2.739035   5.620565   3.165668   5.266659
    14  O    4.155249   2.627379   2.630608   5.237596   4.782957
    15  H    4.566931   2.956598   2.972005   5.634857   5.151418
                   11         12         13         14         15
    11  H    0.000000
    12  O    5.127631   0.000000
    13  H    5.751704   0.961066   0.000000
    14  O    5.153354   4.789875   4.989570   0.000000
    15  H    5.357252   5.146119   5.467449   0.961030   0.000000
 Symmetry turned off by external request.
 Stoichiometry    C6H6O3
 Framework group  C1[X(C6H6O3)]
 Deg. of freedom    39
 Full point group                 C1      NOp   1
 Rotational constants (GHZ):      1.8215145      1.8184291      0.9173383
 Leave Link  202 at Wed Jul 03 13:46:21 2019, MaxMem=   33554432 cpu:       0.0
 (Enter C:\Program Files\G09W\l301.exe)
 Standard basis: 6-311+G(d,p) (5D, 7F)
 Ernie: Thresh=  0.10000D-02 Tol=  0.10000D-05 Strict=F.
 Integral buffers will be    131072 words long.
 Raffenetti 2 integral format.
 Two-electron integral symmetry is turned off.
   234 basis functions,   372 primitive gaussians,   243 cartesian basis functions
    33 alpha electrons       33 beta electrons
       nuclear repulsion energy       427.5815284053 Hartrees.
 IExCor=20419 DFT=T Ex+Corr=CAM-B3LYP ExCW=0 ScaHFX=  1.000000
 ScaDFX=  1.000000  1.000000  1.000000  0.810000 ScalE2=  1.000000  1.000000
 IRadAn=      0 IRanWt=     -1 IRanGd=            0 ICorTp=0
  HFx wShort=  0.000000 wLong=  0.330000 cFull=  0.190000 cShort=  0.000000 cLong=  0.460000
  DFx wShort=  0.000000 wLong=  0.330000 cFull=  0.190000 cShort=  0.000000 cLong=  0.460000
 NAtoms=   15 NActive=   15 NUniq=   15 SFac= 1.00D+00 NAtFMM=   60 NAOKFM=F Big=F
 Leave Link  301 at Wed Jul 03 13:46:21 2019, MaxMem=   33554432 cpu:       0.0
 (Enter C:\Program Files\G09W\l302.exe)
 NPDir=0 NMtPBC=     1 NCelOv=     1 NCel=       1 NClECP=     1 NCelD=      1
         NCelK=      1 NCelE2=     1 NClLst=     1 CellRange=     0.0.
 One-electron integrals computed using PRISM.
 NBasis=   234 RedAO= T  NBF=   234
 NBsUse=   234 1.00D-06 NBFU=   234
 Precomputing XC quadrature grid using
 IXCGrd= 2 IRadAn=           0 IRanWt=          -1 IRanGd=           0 AccXCQ= 0.00D+00.
 NRdTot=     963 NPtTot=      122736 NUsed=      129685 NTot=      129717
 NSgBfM=   243   243   243   243   243 NAtAll=    15    15.
 Leave Link  302 at Wed Jul 03 13:46:21 2019, MaxMem=   33554432 cpu:       0.0
 (Enter C:\Program Files\G09W\l303.exe)
 DipDrv:  MaxL=1.
 Leave Link  303 at Wed Jul 03 13:46:21 2019, MaxMem=   33554432 cpu:       0.0
 (Enter C:\Program Files\G09W\l401.exe)
 Initial guess read from the read-write file.
 B after Tr=     0.000000    0.000000    0.000000
         Rot=    1.000000    0.000000    0.000000    0.000000 Ang=   0.00 deg.
 Guess basis will be translated and rotated to current coordinates.
 Generating alternative initial guess.
 Harris functional with IExCor=20419 diagonalized for initial guess.
 ExpMin= 4.38D-02 ExpMax= 8.59D+03 ExpMxC= 1.30D+03 IAcc=2 IRadAn=         4 AccDes= 0.00D+00
 HarFok:  IExCor=20419 AccDes= 0.00D+00 IRadAn=         4 IDoV= 1
 ScaDFX=  1.000000  1.000000  1.000000  1.000000
 FoFCou: FMM=F IPFlag=           0 FMFlag=      100000 FMFlg1=           0
         NFxFlg=           0 DoJE=T BraDBF=F KetDBF=T FulRan=T
         Omega=  0.000000  0.000000  1.000000  0.000000  0.000000 ICntrl=     500 IOpCl=  0
         NMat0=    1 NMatS0=    1 NMatT0=    0 NMatD0=    1 NMtDS0=    0 NMtDT0=    0
         I1Cent=           4 NGrid=           0.
 Symmetry not used in FoFCou.
 Harris En= -441.422787650623    
 Leave Link  401 at Wed Jul 03 13:46:30 2019, MaxMem=   33554432 cpu:       8.0
 (Enter C:\Program Files\G09W\l502.exe)
 Closed shell SCF:
 Requested convergence on RMS density matrix=1.00D-08 within  64 cycles.
 Requested convergence on MAX density matrix=1.00D-06.
 Requested convergence on             energy=1.00D-06.
 No special actions if energy rises.
 Using DIIS extrapolation, IDIIS=  1040.
 Two-electron integral symmetry not used.
       129537 words used for storage of precomputed grid.
 IEnd=      315168 IEndB=      315168 NGot=    33554432 MDV=    33302781
 LenX=    33302781 LenY=    33243291
 Fock matrices will be formed incrementally for  20 cycles.

 Cycle   1  Pass 1  IDiag  1:
 FoFJK:  IHMeth= 1 ICntrl=     0 DoSepK=T KAlg= 1 I1Cent= 0 FoldK=F
 FoFCou: FMM=F IPFlag=           0 FMFlag=      100000 FMFlg1=           0
         NFxFlg=           0 DoJE=T BraDBF=F KetDBF=F FulRan=T
         Omega=  0.000000  0.000000  1.000000  0.000000  0.000000 ICntrl=     500 IOpCl=  0
         NMat0=    1 NMatS0=    1 NMatT0=    0 NMatD0=    1 NMtDS0=    0 NMtDT0=    0
         I1Cent=           0 NGrid=           0.
 Symmetry not used in FoFCou.
 E= -457.831242574209    
 DIIS: error= 3.00D-03 at cycle   1 NSaved=   1.
 NSaved= 1 IEnMin= 1 EnMin= -457.831242574209     IErMin= 1 ErrMin= 3.00D-03
 ErrMax= 3.00D-03 EMaxC= 1.00D-01 BMatC= 3.31D-03 BMatP= 3.31D-03
 IDIUse=3 WtCom= 9.70D-01 WtEn= 3.00D-02
 Coeff-Com:  0.100D+01
 Coeff-En:   0.100D+01
 Coeff:      0.100D+01
 Gap=     0.341 Goal=   None    Shift=    0.000
 GapD=    0.341 DampG=1.000 DampE=1.000 DampFc=1.0000 IDamp=-1.
 RMSDP=5.37D-03 MaxDP=3.72D-01              OVMax= 1.17D-02

 Cycle   2  Pass 1  IDiag  1:
 RMSU=  3.51D-03    CP:  1.07D+00
 FoFJK:  IHMeth= 1 ICntrl=     0 DoSepK=T KAlg= 1 I1Cent= 0 FoldK=F
 E= -457.834715689846     Delta-E=       -0.003473115636 Rises=F Damp=F
 DIIS: error= 8.97D-04 at cycle   2 NSaved=   2.
 NSaved= 2 IEnMin= 2 EnMin= -457.834715689846     IErMin= 2 ErrMin= 8.97D-04
 ErrMax= 8.97D-04 EMaxC= 1.00D-01 BMatC= 1.64D-04 BMatP= 3.31D-03
 IDIUse=3 WtCom= 9.91D-01 WtEn= 8.97D-03
 Coeff-Com:  0.185D-01 0.981D+00
 Coeff-En:   0.000D+00 0.100D+01
 Coeff:      0.184D-01 0.982D+00
 Gap=     0.326 Goal=   None    Shift=    0.000
 RMSDP=8.14D-04 MaxDP=3.00D-02 DE=-3.47D-03 OVMax= 6.16D-03

 Cycle   3  Pass 1  IDiag  1:
 RMSU=  3.23D-04    CP:  1.08D+00  1.13D+00
 FoFJK:  IHMeth= 1 ICntrl=     0 DoSepK=T KAlg= 1 I1Cent= 0 FoldK=F
 E= -457.834857388761     Delta-E=       -0.000141698916 Rises=F Damp=F
 DIIS: error= 6.46D-04 at cycle   3 NSaved=   3.
 NSaved= 3 IEnMin= 3 EnMin= -457.834857388761     IErMin= 3 ErrMin= 6.46D-04
 ErrMax= 6.46D-04 EMaxC= 1.00D-01 BMatC= 9.54D-05 BMatP= 1.64D-04
 IDIUse=3 WtCom= 9.94D-01 WtEn= 6.46D-03
 Coeff-Com: -0.407D-01 0.430D+00 0.611D+00
 Coeff-En:   0.000D+00 0.000D+00 0.100D+01
 Coeff:     -0.405D-01 0.427D+00 0.614D+00
 Gap=     0.327 Goal=   None    Shift=    0.000
 RMSDP=3.18D-04 MaxDP=2.91D-02 DE=-1.42D-04 OVMax= 1.71D-03

 Cycle   4  Pass 1  IDiag  1:
 RMSU=  1.18D-04    CP:  1.09D+00  1.15D+00  7.68D-01
 FoFJK:  IHMeth= 1 ICntrl=     0 DoSepK=T KAlg= 1 I1Cent= 0 FoldK=F
 E= -457.834937196252     Delta-E=       -0.000079807491 Rises=F Damp=F
 DIIS: error= 1.50D-04 at cycle   4 NSaved=   4.
 NSaved= 4 IEnMin= 4 EnMin= -457.834937196252     IErMin= 4 ErrMin= 1.50D-04
 ErrMax= 1.50D-04 EMaxC= 1.00D-01 BMatC= 6.40D-06 BMatP= 9.54D-05
 IDIUse=3 WtCom= 9.99D-01 WtEn= 1.50D-03
 Coeff-Com: -0.172D-01 0.919D-01 0.233D+00 0.692D+00
 Coeff-En:   0.000D+00 0.000D+00 0.000D+00 0.100D+01
 Coeff:     -0.172D-01 0.918D-01 0.233D+00 0.693D+00
 Gap=     0.327 Goal=   None    Shift=    0.000
 RMSDP=5.74D-05 MaxDP=3.34D-03 DE=-7.98D-05 OVMax= 7.58D-04

 Cycle   5  Pass 1  IDiag  1:
 RMSU=  3.52D-05    CP:  1.09D+00  1.16D+00  7.84D-01  1.10D+00
 FoFJK:  IHMeth= 1 ICntrl=     0 DoSepK=T KAlg= 1 I1Cent= 0 FoldK=F
 E= -457.834942637809     Delta-E=       -0.000005441557 Rises=F Damp=F
 DIIS: error= 6.47D-05 at cycle   5 NSaved=   5.
 NSaved= 5 IEnMin= 5 EnMin= -457.834942637809     IErMin= 5 ErrMin= 6.47D-05
 ErrMax= 6.47D-05 EMaxC= 1.00D-01 BMatC= 9.91D-07 BMatP= 6.40D-06
 IDIUse=1 WtCom= 1.00D+00 WtEn= 0.00D+00
 Coeff-Com: -0.380D-03-0.245D-01-0.269D-02 0.281D+00 0.747D+00
 Coeff:     -0.380D-03-0.245D-01-0.269D-02 0.281D+00 0.747D+00
 Gap=     0.327 Goal=   None    Shift=    0.000
 RMSDP=2.60D-05 MaxDP=1.46D-03 DE=-5.44D-06 OVMax= 4.90D-04

 Cycle   6  Pass 1  IDiag  1:
 RMSU=  1.03D-05    CP:  1.09D+00  1.16D+00  8.06D-01  1.13D+00  1.20D+00
 FoFJK:  IHMeth= 1 ICntrl=     0 DoSepK=T KAlg= 1 I1Cent= 0 FoldK=F
 E= -457.834943662805     Delta-E=       -0.000001024996 Rises=F Damp=F
 DIIS: error= 2.44D-05 at cycle   6 NSaved=   6.
 NSaved= 6 IEnMin= 6 EnMin= -457.834943662805     IErMin= 6 ErrMin= 2.44D-05
 ErrMax= 2.44D-05 EMaxC= 1.00D-01 BMatC= 1.06D-07 BMatP= 9.91D-07
 IDIUse=1 WtCom= 1.00D+00 WtEn= 0.00D+00
 Coeff-Com:  0.184D-02-0.216D-01-0.364D-01 0.221D-01 0.278D+00 0.756D+00
 Coeff:      0.184D-02-0.216D-01-0.364D-01 0.221D-01 0.278D+00 0.756D+00
 Gap=     0.327 Goal=   None    Shift=    0.000
 RMSDP=6.41D-06 MaxDP=3.51D-04 DE=-1.02D-06 OVMax= 1.42D-04

 Cycle   7  Pass 1  IDiag  1:
 RMSU=  3.54D-06    CP:  1.09D+00  1.16D+00  8.11D-01  1.14D+00  1.21D+00
                    CP:  8.68D-01
 FoFJK:  IHMeth= 1 ICntrl=     0 DoSepK=T KAlg= 1 I1Cent= 0 FoldK=F
 E= -457.834943801098     Delta-E=       -0.000000138294 Rises=F Damp=F
 DIIS: error= 7.83D-06 at cycle   7 NSaved=   7.
 NSaved= 7 IEnMin= 7 EnMin= -457.834943801098     IErMin= 7 ErrMin= 7.83D-06
 ErrMax= 7.83D-06 EMaxC= 1.00D-01 BMatC= 4.13D-09 BMatP= 1.06D-07
 IDIUse=1 WtCom= 1.00D+00 WtEn= 0.00D+00
 Coeff-Com:  0.329D-03-0.834D-03-0.660D-02-0.137D-01-0.668D-02 0.606D-01
 Coeff-Com:  0.967D+00
 Coeff:      0.329D-03-0.834D-03-0.660D-02-0.137D-01-0.668D-02 0.606D-01
 Coeff:      0.967D+00
 Gap=     0.327 Goal=   None    Shift=    0.000
 RMSDP=2.36D-06 MaxDP=1.57D-04 DE=-1.38D-07 OVMax= 8.66D-05

 Cycle   8  Pass 1  IDiag  1:
 RMSU=  5.87D-07    CP:  1.09D+00  1.16D+00  8.11D-01  1.14D+00  1.20D+00
                    CP:  8.44D-01  1.31D+00
 FoFJK:  IHMeth= 1 ICntrl=     0 DoSepK=T KAlg= 1 I1Cent= 0 FoldK=F
 E= -457.834943813944     Delta-E=       -0.000000012846 Rises=F Damp=F
 DIIS: error= 3.86D-06 at cycle   8 NSaved=   8.
 NSaved= 8 IEnMin= 8 EnMin= -457.834943813944     IErMin= 8 ErrMin= 3.86D-06
 ErrMax= 3.86D-06 EMaxC= 1.00D-01 BMatC= 2.29D-09 BMatP= 4.13D-09
 IDIUse=1 WtCom= 1.00D+00 WtEn= 0.00D+00
 Coeff-Com: -0.124D-03 0.293D-02 0.206D-02-0.104D-01-0.459D-01-0.114D+00
 Coeff-Com:  0.432D+00 0.734D+00
 Coeff:     -0.124D-03 0.293D-02 0.206D-02-0.104D-01-0.459D-01-0.114D+00
 Coeff:      0.432D+00 0.734D+00
 Gap=     0.327 Goal=   None    Shift=    0.000
 RMSDP=9.74D-07 MaxDP=6.72D-05 DE=-1.28D-08 OVMax= 2.39D-05

 Cycle   9  Pass 1  IDiag  1:
 RMSU=  2.26D-07    CP:  1.09D+00  1.16D+00  8.12D-01  1.14D+00  1.20D+00
                    CP:  8.35D-01  1.42D+00  1.19D+00
 FoFJK:  IHMeth= 1 ICntrl=     0 DoSepK=T KAlg= 1 I1Cent= 0 FoldK=F
 E= -457.834943816635     Delta-E=       -0.000000002691 Rises=F Damp=F
 DIIS: error= 3.66D-07 at cycle   9 NSaved=   9.
 NSaved= 9 IEnMin= 9 EnMin= -457.834943816635     IErMin= 9 ErrMin= 3.66D-07
 ErrMax= 3.66D-07 EMaxC= 1.00D-01 BMatC= 4.84D-11 BMatP= 2.29D-09
 IDIUse=1 WtCom= 1.00D+00 WtEn= 0.00D+00
 Coeff-Com: -0.389D-04 0.568D-03 0.615D-03-0.630D-03-0.721D-02-0.268D-01
 Coeff-Com:  0.358D-01 0.980D-01 0.900D+00
 Coeff:     -0.389D-04 0.568D-03 0.615D-03-0.630D-03-0.721D-02-0.268D-01
 Coeff:      0.358D-01 0.980D-01 0.900D+00
 Gap=     0.327 Goal=   None    Shift=    0.000
 RMSDP=3.03D-07 MaxDP=1.55D-05 DE=-2.69D-09 OVMax= 4.96D-06

 Cycle  10  Pass 1  IDiag  1:
 RMSU=  1.02D-07    CP:  1.09D+00  1.16D+00  8.12D-01  1.14D+00  1.20D+00
                    CP:  8.30D-01  1.42D+00  1.29D+00  1.02D+00
 FoFJK:  IHMeth= 1 ICntrl=     0 DoSepK=T KAlg= 1 I1Cent= 0 FoldK=F
 E= -457.834943816702     Delta-E=       -0.000000000066 Rises=F Damp=F
 DIIS: error= 3.33D-07 at cycle  10 NSaved=  10.
 NSaved=10 IEnMin=10 EnMin= -457.834943816702     IErMin=10 ErrMin= 3.33D-07
 ErrMax= 3.33D-07 EMaxC= 1.00D-01 BMatC= 2.82D-11 BMatP= 4.84D-11
 IDIUse=1 WtCom= 1.00D+00 WtEn= 0.00D+00
 Coeff-Com:  0.971D-06-0.195D-03-0.577D-04 0.156D-02 0.429D-02 0.439D-02
 Coeff-Com: -0.488D-01-0.772D-01 0.502D+00 0.614D+00
 Coeff:      0.971D-06-0.195D-03-0.577D-04 0.156D-02 0.429D-02 0.439D-02
 Coeff:     -0.488D-01-0.772D-01 0.502D+00 0.614D+00
 Gap=     0.327 Goal=   None    Shift=    0.000
 RMSDP=1.16D-07 MaxDP=6.50D-06 DE=-6.64D-11 OVMax= 1.84D-06

 Cycle  11  Pass 1  IDiag  1:
 RMSU=  3.21D-08    CP:  1.09D+00  1.16D+00  8.12D-01  1.14D+00  1.20D+00
                    CP:  8.26D-01  1.43D+00  1.31D+00  1.11D+00  8.73D-01
 FoFJK:  IHMeth= 1 ICntrl=     0 DoSepK=T KAlg= 1 I1Cent= 0 FoldK=F
 E= -457.834943816728     Delta-E=       -0.000000000027 Rises=F Damp=F
 DIIS: error= 4.97D-08 at cycle  11 NSaved=  11.
 NSaved=11 IEnMin=11 EnMin= -457.834943816728     IErMin=11 ErrMin= 4.97D-08
 ErrMax= 4.97D-08 EMaxC= 1.00D-01 BMatC= 4.95D-13 BMatP= 2.82D-11
 IDIUse=1 WtCom= 1.00D+00 WtEn= 0.00D+00
 Coeff-Com:  0.226D-05-0.397D-04-0.453D-04 0.913D-04 0.704D-03 0.121D-02
 Coeff-Com: -0.283D-02-0.135D-01-0.446D-01 0.342D-01 0.102D+01
 Coeff:      0.226D-05-0.397D-04-0.453D-04 0.913D-04 0.704D-03 0.121D-02
 Coeff:     -0.283D-02-0.135D-01-0.446D-01 0.342D-01 0.102D+01
 Gap=     0.327 Goal=   None    Shift=    0.000
 RMSDP=2.74D-08 MaxDP=1.66D-06 DE=-2.68D-11 OVMax= 5.16D-07

 Cycle  12  Pass 1  IDiag  1:
 RMSU=  6.62D-09    CP:  1.09D+00  1.16D+00  8.12D-01  1.14D+00  1.20D+00
                    CP:  8.25D-01  1.43D+00  1.31D+00  1.11D+00  9.36D-01
                    CP:  1.18D+00
 FoFJK:  IHMeth= 1 ICntrl=     0 DoSepK=T KAlg= 1 I1Cent= 0 FoldK=F
 E= -457.834943816718     Delta-E=        0.000000000010 Rises=F Damp=F
 DIIS: error= 1.24D-08 at cycle  12 NSaved=  12.
 NSaved=12 IEnMin=11 EnMin= -457.834943816728     IErMin=12 ErrMin= 1.24D-08
 ErrMax= 1.24D-08 EMaxC= 1.00D-01 BMatC= 2.98D-14 BMatP= 4.95D-13
 IDIUse=1 WtCom= 1.00D+00 WtEn= 0.00D+00
 Coeff-Com:  0.528D-06 0.122D-05-0.908D-05-0.662D-04-0.694D-04 0.546D-04
 Coeff-Com:  0.230D-02 0.941D-03-0.403D-01-0.260D-01 0.229D+00 0.834D+00
 Coeff:      0.528D-06 0.122D-05-0.908D-05-0.662D-04-0.694D-04 0.546D-04
 Coeff:      0.230D-02 0.941D-03-0.403D-01-0.260D-01 0.229D+00 0.834D+00
 Gap=     0.327 Goal=   None    Shift=    0.000
 RMSDP=5.39D-09 MaxDP=3.20D-07 DE= 1.00D-11 OVMax= 1.53D-07

 SCF Done:  E(RCAM-B3LYP) =  -457.834943817     A.U. after   12 cycles
             Convg  =    0.5391D-08             -V/T =  2.0029
 KE= 4.565324001491D+02 PE=-1.928121060902D+03 EE= 5.861721885314D+02
 Leave Link  502 at Wed Jul 03 13:50:51 2019, MaxMem=   33554432 cpu:     261.0
 (Enter C:\Program Files\G09W\l508.exe)
 QCSCF skips out because SCF is already converged.
 Leave Link  508 at Wed Jul 03 13:50:51 2019, MaxMem=   33554432 cpu:       0.0
 (Enter C:\Program Files\G09W\l701.exe)
 Compute integral first derivatives.
 ... and contract with generalized density number  0.
 Leave Link  701 at Wed Jul 03 13:50:51 2019, MaxMem=   33554432 cpu:       0.0
 (Enter C:\Program Files\G09W\l702.exe)
 L702 exits ... SP integral derivatives will be done elsewhere.
 Leave Link  702 at Wed Jul 03 13:50:52 2019, MaxMem=   33554432 cpu:       0.0
 (Enter C:\Program Files\G09W\l703.exe)
 Compute integral first derivatives, UseDBF=F ICtDFT=           0.
 Integral derivatives from FoFDir, PRISM(SPDF).
 Calling FoFJK, ICntrl=      2127 FMM=F ISym2X=0 I1Cent= 0 IOpClX= 0 NMat=1 NMatS=1 NMatT=0.
 FoFJK:  IHMeth= 1 ICntrl=  2127 DoSepK=T KAlg= 1 I1Cent= 0 FoldK=F
 FoFCou: FMM=F IPFlag=           0 FMFlag=      100000 FMFlg1=         800
         NFxFlg=           0 DoJE=F BraDBF=F KetDBF=F FulRan=T
         Omega=  0.000000  0.000000  1.000000  0.000000  0.000000 ICntrl=    2527 IOpCl=  0
         NMat0=    1 NMatS0=    1 NMatT0=    0 NMatD0=    1 NMtDS0=    0 NMtDT0=    0
         I1Cent=           0 NGrid=           0.
 Symmetry not used in FoFCou.
 Leave Link  703 at Wed Jul 03 13:52:11 2019, MaxMem=   33554432 cpu:      79.0
 (Enter C:\Program Files\G09W\l716.exe)
 Dipole        = 1.59074135D-01-1.18039665D-01-6.46342570D-01
 -------------------------------------------------------------------
 Center     Atomic                   Forces (Hartrees/Bohr)
 Number     Number              X              Y              Z
 -------------------------------------------------------------------
      1        6          -0.003314260   -0.007042315   -0.001841715
      2        6           0.000630423   -0.001228359    0.001334899
      3        6           0.006764275   -0.000134712    0.001327214
      4        6           0.000779032    0.001600274    0.000120961
      5        6          -0.003365743    0.005948714    0.000941998
      6        6          -0.001822170    0.000210463   -0.000765544
      7        1          -0.000011467    0.000526952   -0.000159839
      8        1          -0.000330401   -0.000488076    0.000241602
      9        1           0.000658076   -0.000161967    0.000278884
     10        8           0.002162033   -0.003280725   -0.002234870
     11        1          -0.001382531    0.002113719    0.000571761
     12        8           0.000533792    0.005204588    0.003020791
     13        1           0.000250484   -0.003193477   -0.001201583
     14        8          -0.004029023   -0.000109994   -0.002206592
     15        1           0.002477480    0.000034916    0.000572033
 -------------------------------------------------------------------
 Cartesian Forces:  Max     0.007042315 RMS     0.002468005
 Leave Link  716 at Wed Jul 03 13:52:11 2019, MaxMem=   33554432 cpu:       0.0
 (Enter C:\Program Files\G09W\l103.exe)

 GradGradGradGradGradGradGradGradGradGradGradGradGradGradGradGradGradGrad
 Berny optimization.
 Using GEDIIS/GDIIS optimizer.
 Internal  Forces:  Max     0.004803303 RMS     0.001555372
 Search for a local minimum.
 Step number   2 out of a maximum of   76
 All quantities printed in internal units (Hartrees-Bohrs-Radians)
 RMS Force = .15554D-02 SwitMx=.10000D-02 MixMth= 1
 Mixed Optimization -- RFO/linear search
 Update second derivatives using D2CorX and points    1    2
 DE= -6.75D-03 DEPred=-7.06D-03 R= 9.57D-01
 SS=  1.41D+00  RLast= 2.44D-01 DXNew= 5.0454D-01 7.3081D-01
 Trust test= 9.57D-01 RLast= 2.44D-01 DXMaxT set to 5.05D-01
 ITU=  1  0
 Use linear search instead of GDIIS.
     Eigenvalues ---    0.01272   0.01295   0.01295   0.01995   0.02017
     Eigenvalues ---    0.02069   0.02152   0.02154   0.02155   0.02156
     Eigenvalues ---    0.02156   0.02163   0.15991   0.15999   0.16000
     Eigenvalues ---    0.16000   0.16000   0.16475   0.23490   0.23493
     Eigenvalues ---    0.24425   0.24910   0.24960   0.24973   0.33328
     Eigenvalues ---    0.33719   0.33724   0.38056   0.40989   0.40998
     Eigenvalues ---    0.42335   0.42347   0.46443   0.46460   0.46466
     Eigenvalues ---    0.50799   0.55466   0.55473   0.55474
 RFO step:  Lambda=-1.09620558D-03 EMin= 1.27178613D-02
 Quartic linear search produced a step of -0.01768.
 Iteration  1 RMS(Cart)=  0.02667467 RMS(Int)=  0.00179323
 Iteration  2 RMS(Cart)=  0.00163593 RMS(Int)=  0.00001090
 Iteration  3 RMS(Cart)=  0.00000574 RMS(Int)=  0.00001032
 Iteration  4 RMS(Cart)=  0.00000000 RMS(Int)=  0.00001032
 Variable       Old X    -DE/DX   Delta X   Delta X   Delta X     New X
                                 (Linear)    (Quad)   (Total)
    R1        2.61710   0.00318   0.00034   0.00501   0.00535   2.62244
    R2        2.61226   0.00344   0.00042   0.00520   0.00561   2.61787
    R3        2.61881  -0.00216   0.00148  -0.01243  -0.01095   2.60785
    R4        2.61405   0.00314   0.00038   0.00473   0.00511   2.61916
    R5        2.04650  -0.00046   0.00056  -0.00410  -0.00354   2.04296
    R6        2.61490   0.00334   0.00039   0.00512   0.00551   2.62041
    R7        2.62191  -0.00160   0.00142  -0.01083  -0.00941   2.61250
    R8        2.61484   0.00306   0.00037   0.00462   0.00499   2.61984
    R9        2.04591  -0.00058   0.00057  -0.00451  -0.00394   2.04197
   R10        2.61492   0.00330   0.00038   0.00508   0.00546   2.62038
   R11        2.62136  -0.00145   0.00143  -0.01051  -0.00908   2.61227
   R12        2.04558  -0.00066   0.00057  -0.00473  -0.00416   2.04142
   R13        1.81608   0.00032  -0.00003   0.00073   0.00070   1.81677
   R14        1.81615   0.00039  -0.00004   0.00086   0.00083   1.81698
   R15        1.81608   0.00031  -0.00003   0.00071   0.00067   1.81676
    A1        2.11750  -0.00124  -0.00041  -0.00309  -0.00350   2.11399
    A2        2.09339   0.00138   0.00002   0.00537   0.00539   2.09878
    A3        2.07151  -0.00013   0.00041  -0.00245  -0.00205   2.06946
    A4        2.07193   0.00104   0.00040   0.00236   0.00275   2.07469
    A5        2.10804  -0.00026  -0.00025   0.00067   0.00042   2.10846
    A6        2.10320  -0.00078  -0.00015  -0.00301  -0.00316   2.10004
    A7        2.11647  -0.00091  -0.00039  -0.00199  -0.00239   2.11408
    A8        2.08250   0.00038   0.00021   0.00043   0.00063   2.08313
    A9        2.08326   0.00053   0.00019   0.00109   0.00127   2.08453
   A10        2.07110   0.00105   0.00041   0.00235   0.00277   2.07387
   A11        2.10557  -0.00048  -0.00020  -0.00094  -0.00115   2.10442
   A12        2.10648  -0.00057  -0.00021  -0.00145  -0.00166   2.10482
   A13        2.11845  -0.00121  -0.00042  -0.00308  -0.00352   2.11493
   A14        2.08253   0.00050   0.00021   0.00077   0.00094   2.08347
   A15        2.08077   0.00070   0.00024   0.00143   0.00163   2.08240
   A16        2.07062   0.00127   0.00042   0.00330   0.00373   2.07434
   A17        2.10488  -0.00081  -0.00018  -0.00285  -0.00303   2.10185
   A18        2.10766  -0.00047  -0.00024  -0.00048  -0.00072   2.10694
   A19        1.88782   0.00466   0.00041   0.02628   0.02670   1.91452
   A20        1.88565   0.00480   0.00045   0.02697   0.02742   1.91307
   A21        1.88803   0.00458   0.00041   0.02584   0.02625   1.91429
    D1        0.01432  -0.00004  -0.00024  -0.00009  -0.00033   0.01399
    D2       -3.13264   0.00002  -0.00017   0.00213   0.00195  -3.13068
    D3        3.11250  -0.00005   0.00052  -0.00490  -0.00437   3.10812
    D4       -0.03447   0.00002   0.00059  -0.00268  -0.00208  -0.03655
    D5       -0.00882   0.00011   0.00016   0.00344   0.00361  -0.00521
    D6        3.14073   0.00018   0.00001   0.00710   0.00712  -3.13534
    D7       -3.10753   0.00008  -0.00060   0.00800   0.00740  -3.10013
    D8        0.04202   0.00014  -0.00074   0.01165   0.01090   0.05293
    D9        1.23726  -0.00183   0.00040  -0.13181  -0.13139   1.10586
   D10       -1.94662  -0.00186   0.00115  -0.13651  -0.13537  -2.08199
   D11        0.00037   0.00000  -0.00002   0.00103   0.00100   0.00137
   D12        3.09453  -0.00012   0.00082  -0.01040  -0.00958   3.08495
   D13       -3.13587  -0.00006  -0.00009  -0.00119  -0.00129  -3.13716
   D14       -0.04171  -0.00018   0.00075  -0.01262  -0.01187  -0.05358
   D15       -0.01997  -0.00007   0.00036  -0.00536  -0.00500  -0.02497
   D16        3.11375  -0.00017   0.00049  -0.01073  -0.01024   3.10351
   D17       -3.11410   0.00006  -0.00048   0.00609   0.00560  -3.10850
   D18        0.01961  -0.00004  -0.00035   0.00073   0.00037   0.01998
   D19        1.58966   0.00011  -0.00037   0.00734   0.00698   1.59664
   D20       -1.59845  -0.00005   0.00046  -0.00396  -0.00352  -1.60197
   D21        0.02571   0.00012  -0.00045   0.00882   0.00836   0.03406
   D22        3.10947  -0.00010   0.00057  -0.00899  -0.00841   3.10106
   D23       -3.10800   0.00023  -0.00058   0.01419   0.01359  -3.09441
   D24       -0.02424   0.00000   0.00044  -0.00362  -0.00318  -0.02742
   D25       -0.01158  -0.00014   0.00019  -0.00785  -0.00765  -0.01923
   D26        3.12204  -0.00020   0.00034  -0.01153  -0.01117   3.11086
   D27       -3.09540   0.00010  -0.00082   0.00996   0.00913  -3.08627
   D28        0.03822   0.00003  -0.00068   0.00628   0.00560   0.04383
[...]
 IDIUse=1 WtCom= 1.00D+00 WtEn= 0.00D+00
 Coeff-Com:  0.100D+01
 Coeff:      0.100D+01
 Gap=     0.310 Goal=   None    Shift=    0.000
 RMSDP=3.99D-05 MaxDP=1.54D-03              OVMax= 3.67D-05

 Cycle   2  Pass 1  IDiag  1:
 RMSU=  2.57D-05    CP:  9.99D-01
 FoFJK:  IHMeth= 1 ICntrl=     0 DoSepK=T KAlg= 1 I1Cent= 0 FoldK=F
 E= -457.853078999715     Delta-E=       -0.000000009240 Rises=F Damp=F
 DIIS: error= 7.04D-07 at cycle   2 NSaved=   2.
 NSaved= 2 IEnMin= 2 EnMin= -457.853078999715     IErMin= 2 ErrMin= 7.04D-07
 ErrMax= 7.04D-07 EMaxC= 1.00D-01 BMatC= 9.52D-11 BMatP= 4.66D-09
 IDIUse=1 WtCom= 1.00D+00 WtEn= 0.00D+00
 Coeff-Com: -0.122D+00 0.112D+01
 Coeff:     -0.122D+00 0.112D+01
 Gap=     0.310 Goal=   None    Shift=    0.000
 RMSDP=4.88D-06 MaxDP=1.73D-04 DE=-9.24D-09 OVMax= 9.57D-06

 Cycle   3  Pass 1  IDiag  1:
 RMSU=  8.51D-07    CP:  9.99D-01  1.12D+00
 FoFJK:  IHMeth= 1 ICntrl=     0 DoSepK=T KAlg= 1 I1Cent= 0 FoldK=F
 E= -457.853078999970     Delta-E=       -0.000000000255 Rises=F Damp=F
 DIIS: error= 3.27D-07 at cycle   3 NSaved=   3.
 NSaved= 3 IEnMin= 3 EnMin= -457.853078999970     IErMin= 3 ErrMin= 3.27D-07
 ErrMax= 3.27D-07 EMaxC= 1.00D-01 BMatC= 2.25D-11 BMatP= 9.52D-11
 IDIUse=1 WtCom= 1.00D+00 WtEn= 0.00D+00
 Coeff-Com: -0.547D-01 0.454D+00 0.601D+00
 Coeff:     -0.547D-01 0.454D+00 0.601D+00
 Gap=     0.310 Goal=   None    Shift=    0.000
 RMSDP=1.51D-07 MaxDP=5.02D-06 DE=-2.55D-10 OVMax= 1.98D-06

 Cycle   4  Pass 1  IDiag  1:
 RMSU=  3.77D-08    CP:  9.99D-01  1.12D+00  1.11D+00
 FoFJK:  IHMeth= 1 ICntrl=     0 DoSepK=T KAlg= 1 I1Cent= 0 FoldK=F
 E= -457.853078999982     Delta-E=       -0.000000000012 Rises=F Damp=F
 DIIS: error= 1.64D-07 at cycle   4 NSaved=   4.
 NSaved= 4 IEnMin= 4 EnMin= -457.853078999982     IErMin= 4 ErrMin= 1.64D-07
 ErrMax= 1.64D-07 EMaxC= 1.00D-01 BMatC= 3.56D-12 BMatP= 2.25D-11
 IDIUse=1 WtCom= 1.00D+00 WtEn= 0.00D+00
 Coeff-Com:  0.323D-02-0.522D-01 0.258D+00 0.791D+00
 Coeff:      0.323D-02-0.522D-01 0.258D+00 0.791D+00
 Gap=     0.310 Goal=   None    Shift=    0.000
 RMSDP=1.19D-07 MaxDP=3.84D-06 DE=-1.21D-11 OVMax= 1.03D-06

 Cycle   5  Pass 1  IDiag  1:
 RMSU=  1.61D-08    CP:  9.99D-01  1.12D+00  1.20D+00  9.72D-01
 FoFJK:  IHMeth= 1 ICntrl=     0 DoSepK=T KAlg= 1 I1Cent= 0 FoldK=F
 E= -457.853078999997     Delta-E=       -0.000000000015 Rises=F Damp=F
 DIIS: error= 2.23D-08 at cycle   5 NSaved=   5.
 NSaved= 5 IEnMin= 5 EnMin= -457.853078999997     IErMin= 5 ErrMin= 2.23D-08
 ErrMax= 2.23D-08 EMaxC= 1.00D-01 BMatC= 2.09D-13 BMatP= 3.56D-12
 IDIUse=1 WtCom= 1.00D+00 WtEn= 0.00D+00
 Coeff-Com:  0.478D-02-0.503D-01 0.586D-01 0.285D+00 0.702D+00
 Coeff:      0.478D-02-0.503D-01 0.586D-01 0.285D+00 0.702D+00
 Gap=     0.310 Goal=   None    Shift=    0.000
 RMSDP=2.22D-08 MaxDP=5.91D-07 DE=-1.51D-11 OVMax= 2.59D-07

 Cycle   6  Pass 1  IDiag  1:
 RMSU=  4.35D-09    CP:  9.99D-01  1.12D+00  1.22D+00  1.04D+00  1.17D+00
 FoFJK:  IHMeth= 1 ICntrl=     0 DoSepK=T KAlg= 1 I1Cent= 0 FoldK=F
 E= -457.853078999993     Delta-E=        0.000000000005 Rises=F Damp=F
 DIIS: error= 9.19D-09 at cycle   6 NSaved=   6.
 NSaved= 6 IEnMin= 5 EnMin= -457.853078999997     IErMin= 6 ErrMin= 9.19D-09
 ErrMax= 9.19D-09 EMaxC= 1.00D-01 BMatC= 2.38D-14 BMatP= 2.09D-13
 IDIUse=1 WtCom= 1.00D+00 WtEn= 0.00D+00
 Coeff-Com:  0.136D-02-0.122D-01-0.594D-02 0.104D-01 0.247D+00 0.759D+00
 Coeff:      0.136D-02-0.122D-01-0.594D-02 0.104D-01 0.247D+00 0.759D+00
 Gap=     0.310 Goal=   None    Shift=    0.000
 RMSDP=5.54D-09 MaxDP=2.49D-07 DE= 4.66D-12 OVMax= 1.07D-07

 SCF Done:  E(RCAM-B3LYP) =  -457.853079000     A.U. after    6 cycles
             Convg  =    0.5538D-08             -V/T =  2.0029
 KE= 4.565204355095D+02 PE=-1.931531463041D+03 EE= 5.877400671976D+02
 Leave Link  502 at Wed Jul 03 16:28:36 2019, MaxMem=   33554432 cpu:     136.0
 (Enter C:\Program Files\G09W\l601.exe)
 Copying SCF densities to generalized density rwf, IOpCl= 0 IROHF=0.

 **********************************************************************

            Population analysis using the SCF density.

 **********************************************************************

 Orbital symmetries:
       Occupied  (A) (A) (A) (A) (A) (A) (A) (A) (A) (A) (A) (A)
                 (A) (A) (A) (A) (A) (A) (A) (A) (A) (A) (A) (A)
                 (A) (A) (A) (A) (A) (A) (A) (A) (A)
       Virtual   (A) (A) (A) (A) (A) (A) (A) (A) (A) (A) (A) (A)
                 (A) (A) (A) (A) (A) (A) (A) (A) (A) (A) (A) (A)
                 (A) (A) (A) (A) (A) (A) (A) (A) (A) (A) (A) (A)
                 (A) (A) (A) (A) (A) (A) (A) (A) (A) (A) (A) (A)
                 (A) (A) (A) (A) (A) (A) (A) (A) (A) (A) (A) (A)
                 (A) (A) (A) (A) (A) (A) (A) (A) (A) (A) (A) (A)
                 (A) (A) (A) (A) (A) (A) (A) (A) (A) (A) (A) (A)
                 (A) (A) (A) (A) (A) (A) (A) (A) (A) (A) (A) (A)
                 (A) (A) (A) (A) (A) (A) (A) (A) (A) (A) (A) (A)
                 (A) (A) (A) (A) (A) (A) (A) (A) (A) (A) (A) (A)
                 (A) (A) (A) (A) (A) (A) (A) (A) (A) (A) (A) (A)
                 (A) (A) (A) (A) (A) (A) (A) (A) (A) (A) (A) (A)
                 (A) (A) (A) (A) (A) (A) (A) (A) (A) (A) (A) (A)
                 (A) (A) (A) (A) (A) (A) (A) (A) (A) (A) (A) (A)
                 (A) (A) (A) (A) (A) (A) (A) (A) (A) (A) (A) (A)
                 (A) (A) (A) (A) (A) (A) (A) (A) (A) (A) (A) (A)
                 (A) (A) (A) (A) (A) (A) (A) (A) (A)
 The electronic state is 1-A.
 Alpha  occ. eigenvalues --  -19.23488 -19.23487 -19.23486 -10.32272 -10.32271
 Alpha  occ. eigenvalues --  -10.32269 -10.24166 -10.24166 -10.24165  -1.16047
 Alpha  occ. eigenvalues --   -1.15705  -1.15703  -0.94276  -0.83425  -0.83425
 Alpha  occ. eigenvalues --   -0.71661  -0.71659  -0.67442  -0.59101  -0.57786
 Alpha  occ. eigenvalues --   -0.57785  -0.56994  -0.51532  -0.48874  -0.48872
 Alpha  occ. eigenvalues --   -0.47299  -0.47298  -0.44148  -0.44148  -0.44005
 Alpha  occ. eigenvalues --   -0.36896  -0.28563  -0.28563
 Alpha virt. eigenvalues --    0.02401   0.03108   0.03109   0.04363   0.04365
 Alpha virt. eigenvalues --    0.06732   0.06733   0.08082   0.08469   0.09814
 Alpha virt. eigenvalues --    0.12189   0.12199   0.13116   0.14547   0.14548
 Alpha virt. eigenvalues --    0.15564   0.15571   0.16600   0.17175   0.17190
 Alpha virt. eigenvalues --    0.18019   0.18021   0.18876   0.22059   0.22065
 Alpha virt. eigenvalues --    0.22112   0.22371   0.23606   0.23621   0.25567
 Alpha virt. eigenvalues --    0.25697   0.25699   0.27616   0.28287   0.29553
 Alpha virt. eigenvalues --    0.30731   0.32110   0.32111   0.32232   0.32240
 Alpha virt. eigenvalues --    0.34452   0.34457   0.35525   0.37339   0.37345
 Alpha virt. eigenvalues --    0.38661   0.41359   0.41371   0.44049   0.44051
 Alpha virt. eigenvalues --    0.50938   0.50943   0.51398   0.55619   0.56850
 Alpha virt. eigenvalues --    0.59981   0.60651   0.60653   0.62508   0.62510
 Alpha virt. eigenvalues --    0.64263   0.64265   0.66803   0.67268   0.67269
 Alpha virt. eigenvalues --    0.71024   0.73711   0.73834   0.73836   0.75661
 Alpha virt. eigenvalues --    0.80842   0.80843   0.83105   0.87316   0.87317
 Alpha virt. eigenvalues --    0.92331   0.95436   0.95437   0.95855   0.97499
 Alpha virt. eigenvalues --    0.97501   1.05141   1.05888   1.06787   1.06788
 Alpha virt. eigenvalues --    1.13699   1.14305   1.14305   1.16288   1.16289
 Alpha virt. eigenvalues --    1.18762   1.19947   1.19948   1.25574   1.29714
 Alpha virt. eigenvalues --    1.29715   1.30103   1.30106   1.32393   1.44654
 Alpha virt. eigenvalues --    1.46052   1.48192   1.48196   1.56850   1.59764
 Alpha virt. eigenvalues --    1.60456   1.60461   1.62852   1.67063   1.67198
 Alpha virt. eigenvalues --    1.67200   1.69172   1.69177   1.76135   1.76140
 Alpha virt. eigenvalues --    1.77803   1.87443   1.87446   1.95215   1.95219
 Alpha virt. eigenvalues --    1.97607   1.97612   2.02522   2.02522   2.03136
 Alpha virt. eigenvalues --    2.03136   2.04333   2.13282   2.13283   2.14400
 Alpha virt. eigenvalues --    2.17122   2.17124   2.17306   2.17630   2.38202
 Alpha virt. eigenvalues --    2.38204   2.38750   2.53984   2.53991   2.55319
 Alpha virt. eigenvalues --    2.64973   2.68640   2.69952   2.69956   2.72889
 Alpha virt. eigenvalues --    2.76674   2.76674   2.80514   2.80515   2.82490
 Alpha virt. eigenvalues --    2.82748   2.82753   2.92465   2.92466   3.11051
 Alpha virt. eigenvalues --    3.14053   3.16492   3.16496   3.16835   3.16840
 Alpha virt. eigenvalues --    3.16929   3.22886   3.25196   3.25951   3.25952
 Alpha virt. eigenvalues --    3.40889   3.40894   3.50882   3.54253   3.54260
 Alpha virt. eigenvalues --    3.67878   3.68505   3.68508   3.75445   3.96892
 Alpha virt. eigenvalues --    3.96896   4.00201   4.16057   4.16061   4.19844
 Alpha virt. eigenvalues --    4.24217   4.24222   4.91950   5.04734   5.06979
 Alpha virt. eigenvalues --    5.06980   5.48492   5.52239   5.52248   5.79172
 Alpha virt. eigenvalues --    5.85928   5.85928  23.57332  23.96981  23.96985
 Alpha virt. eigenvalues --   24.15766  24.15774  24.25691  49.94345  49.99293
 Alpha virt. eigenvalues --   49.99294
          Condensed to atoms (all electrons):
              1          2          3          4          5          6
     1  C    6.290052  -0.503284   0.298832  -0.373664   0.299019  -0.237494
     2  C   -0.503284   8.185196  -0.238464  -0.593684  -0.373587  -0.593670
     3  C    0.298832  -0.238464   6.290756  -0.503119   0.299101  -0.373765
     4  C   -0.373664  -0.593684  -0.503119   8.183457  -0.237818  -0.593072
     5  C    0.299019  -0.373587   0.299101  -0.237818   6.289439  -0.502805
     6  C   -0.237494  -0.593670  -0.373765  -0.593072  -0.502805   8.183259
     7  H   -0.048062   0.346657   0.149926  -0.029380   0.017210  -0.068326
     8  H    0.017246  -0.068334  -0.047941   0.346583   0.149915  -0.029441
     9  H    0.149892  -0.029398   0.017219  -0.068298  -0.047972   0.346595
    10  O   -0.018114   0.042748   0.053655  -0.225888   0.270024  -0.058912
    11  H    0.007430  -0.007639  -0.011691   0.083958   0.070726  -0.138148
    12  O    0.269864  -0.058861  -0.018095   0.042771   0.053667  -0.225938
    13  H    0.070821  -0.138258   0.007435  -0.007651  -0.011686   0.083986
    14  O    0.053628  -0.225933   0.270084  -0.058870  -0.018095   0.042758
    15  H   -0.011688   0.084007   0.070791  -0.138237   0.007419  -0.007646
              7          8          9         10         11         12
     1  C   -0.048062   0.017246   0.149892  -0.018114   0.007430   0.269864
     2  C    0.346657  -0.068334  -0.029398   0.042748  -0.007639  -0.058861
     3  C    0.149926  -0.047941   0.017219   0.053655  -0.011691  -0.018095
     4  C   -0.029380   0.346583  -0.068298  -0.225888   0.083958   0.042771
     5  C    0.017210   0.149915  -0.047972   0.270024   0.070726   0.053667
     6  C   -0.068326  -0.029441   0.346595  -0.058912  -0.138148  -0.225938
     7  H    0.525351  -0.000077  -0.000078   0.000091   0.000000  -0.009981
     8  H   -0.000077   0.525350  -0.000077  -0.007856   0.000516   0.000091
     9  H   -0.000078  -0.000077   0.525303  -0.009979   0.004603  -0.007860
    10  O    0.000091  -0.007856  -0.009979   7.993184   0.247586  -0.000978
    11  H    0.000000   0.000516   0.004603   0.247586   0.485675  -0.000036
    12  O   -0.009981   0.000091  -0.007860  -0.000978  -0.000036   7.993304
    13  H    0.004606   0.000000   0.000516  -0.000017   0.000006   0.247545
    14  O   -0.007855  -0.009981   0.000091  -0.000977  -0.000017  -0.000977
    15  H    0.000516   0.004602   0.000000  -0.000036   0.000006  -0.000017
             13         14         15
     1  C    0.070821   0.053628  -0.011688
     2  C   -0.138258  -0.225933   0.084007
     3  C    0.007435   0.270084   0.070791
     4  C   -0.007651  -0.058870  -0.138237
     5  C   -0.011686  -0.018095   0.007419
     6  C    0.083986   0.042758  -0.007646
     7  H    0.004606  -0.007855   0.000516
     8  H    0.000000  -0.009981   0.004602
     9  H    0.000516   0.000091   0.000000
    10  O   -0.000017  -0.000977  -0.000036
    11  H    0.000006  -0.000017   0.000006
    12  O    0.247545  -0.000977  -0.000017
    13  H    0.485717  -0.000037   0.000006
    14  O   -0.000037   7.993184   0.247551
    15  H    0.000006   0.247551   0.485706
 Mulliken atomic charges:
              1
     1  C   -0.264479
     2  C    0.172505
     3  C   -0.264724
     4  C    0.172912
     5  C   -0.264559
     6  C    0.172621
     7  H    0.119400
     8  H    0.119404
     9  H    0.119442
    10  O   -0.284531
    11  H    0.257028
    12  O   -0.284499
    13  H    0.257012
    14  O   -0.284554
    15  H    0.257021
 Sum of Mulliken atomic charges =   0.00000
 Mulliken charges with hydrogens summed into heavy atoms:
              1
     1  C   -0.264479
     2  C    0.291906
     3  C   -0.264724
     4  C    0.292316
     5  C   -0.264559
     6  C    0.292063
    10  O   -0.027503
    12  O   -0.027486
    14  O   -0.027534
 Sum of Mulliken charges with hydrogens summed into heavy atoms =   0.00000
 Electronic spatial extent (au):  <R**2>=           1178.8342
 Charge=              0.0000 electrons
 Dipole moment (field-independent basis, Debye):
    X=             -0.0001    Y=              0.0002    Z=              0.0022  Tot=              0.0022
 Quadrupole moment (field-independent basis, Debye-Ang):
   XX=            -47.0553   YY=            -47.0559   ZZ=            -56.2223
   XY=              0.0001   XZ=             -0.0309   YZ=             -0.0083
 Traceless Quadrupole moment (field-independent basis, Debye-Ang):
   XX=              3.0558   YY=              3.0553   ZZ=             -6.1111
   XY=              0.0001   XZ=             -0.0309   YZ=             -0.0083
 Octapole moment (field-independent basis, Debye-Ang**2):
  XXX=             28.2232  YYY=            -29.3810  ZZZ=              0.0005  XYY=            -28.2188
  XXY=             29.3824  XXZ=             -0.0392  XZZ=             -0.0001  YZZ=              0.0002
  YYZ=              0.0686  XYZ=              0.0193
 Hexadecapole moment (field-independent basis, Debye-Ang**3):
 XXXX=           -626.2684 YYYY=           -626.2839 ZZZZ=            -60.9007 XXXY=              0.0003
 XXXZ=             -0.2552 YYYX=              0.0023 YYYZ=             -0.0481 ZZZX=             -0.0183
 ZZZY=             -0.0010 XXYY=           -208.7664 XXZZ=           -135.5388 YYZZ=           -135.5331
 XXYZ=             -0.0253 YYXZ=             -0.1234 ZZXY=              0.0003
 N-N= 4.294178813339D+02 E-N=-1.931531462705D+03  KE= 4.565204355095D+02
 No NMR shielding tensors so no spin-rotation constants.
 Leave Link  601 at Wed Jul 03 16:28:36 2019, MaxMem=   33554432 cpu:       0.0
 (Enter C:\Program Files\G09W\l602.exe)
 Breneman (CHELPG) radii used.
 Generate Potential Derived Charges using the Breneman model, NDens= 1.
 Grid spacing= 0.300 Box extension= 2.800
 NStep X,Y,Z=   39     39     20   Total possible points=       30420
 Number of Points to Fit=   10457

 **********************************************************************

            Electrostatic Properties Using The SCF Density

 **********************************************************************

       Atomic Center    1 is at  -1.043999 -0.900324 -0.000054
       Atomic Center    2 is at   0.258479 -1.373647  0.000069
       Atomic Center    3 is at   1.301705 -0.453990  0.000254
       Atomic Center    4 is at   1.060310  0.910665  0.000143
       Atomic Center    5 is at  -0.257705  1.354333 -0.000245
       Atomic Center    6 is at  -1.318856  0.462936 -0.000221
       Atomic Center    7 is at   0.482487 -2.433360  0.000266
       Atomic Center    8 is at   1.866013  1.634557  0.000044
       Atomic Center    9 is at  -2.348699  0.798562 -0.000565
       Atomic Center   10 is at  -0.448366  2.701393  0.000095
       Atomic Center   11 is at  -1.389031  2.899065  0.001480
       Atomic Center   12 is at  -2.115301 -1.738972 -0.000333
       Atomic Center   13 is at  -1.816219 -2.652455  0.002538
       Atomic Center   14 is at   2.563725 -0.962363  0.000139
       Atomic Center   15 is at   3.205374 -0.246674 -0.002649
   10457 points will be used for fitting atomic charges
 Fitting point charges to electrostatic potential
 Charges from ESP fit, RMS=   0.00402 RRMS=   0.23660:
 Charge=   0.00000 Dipole=    -0.0028     0.0026     0.0027 Tot=     0.0046
              1
     1  C    0.563810
     2  C   -0.567423
     3  C    0.559415
     4  C   -0.579799
     5  C    0.570798
     6  C   -0.581002
     7  H    0.212768
     8  H    0.218154
     9  H    0.216916
    10  O   -0.621524
    11  H    0.415419
    12  O   -0.617549
    13  H    0.413151
    14  O   -0.616240
    15  H    0.413105
 Charges from ESP fit with hydrogens summed into heavy atoms:
              1
     1  C    0.563810
     2  C   -0.354655
     3  C    0.559415
     4  C   -0.361645
     5  C    0.570798
     6  C   -0.364086
     7  H    0.000000
     8  H    0.000000
     9  H    0.000000
    10  O   -0.206105
    11  H    0.000000
    12  O   -0.204398
    13  H    0.000000
    14  O   -0.203135
    15  H    0.000000
 -----------------------------------------------------------------

              Electrostatic Properties (Atomic Units)

 -----------------------------------------------------------------
    Center     Electric         -------- Electric Field --------
               Potential          X             Y             Z
 -----------------------------------------------------------------
    1 Atom    -14.698854
    2 Atom    -14.779636
    3 Atom    -14.698836
    4 Atom    -14.779638
    5 Atom    -14.698841
    6 Atom    -14.779633
    7 Atom     -1.084479
    8 Atom     -1.084485
    9 Atom     -1.084475
   10 Atom    -22.330876
   11 Atom     -0.962783
   12 Atom    -22.330890
   13 Atom     -0.962796
   14 Atom    -22.330890
   15 Atom     -0.962792
 -----------------------------------------------------------------
 Leave Link  602 at Wed Jul 03 16:28:39 2019, MaxMem=   33554432 cpu:       2.0
 (Enter C:\Program Files\G09W\l9999.exe)
 1|1|UNPC-CR03407|SP|RCAM-B3LYP|6-311+G(d,p)|C6H6O3|ST055692|03-Jul-201
 9|0||#P CAM-B3LYP/6-311+G** Guess=Read Geom=Check Pop=CHelpG||BHH char
 ge distribution||0,1|C,0,2.3344943486,-0.6362188997,0.9346842676|C,0,3
 .7139065961,-0.7647032819,0.9000918269|C,0,4.4859362556,0.3803931467,0
 .7363368758|C,0,3.9030538998,1.6312091952,0.6088157912|C,0,2.516222928
 7,1.7272735526,0.6472601291|C,0,1.719645918,0.6048661451,0.8094204337|
 H,0,4.2018535034,-1.7268442712,0.9968611407|H,0,4.4958063463,2.5286511
 718,0.4806767528|H,0,0.6388596687,0.6693158925,0.8405755809|O,0,1.9868
 717721,2.9739469226,0.5187455784|H,0,1.0276414259,2.9283813594,0.56030
 31263|O,0,1.5145835499,-1.710518584,1.0916725351|H,0,2.0376701462,-2.5
 130219713,1.1709073765|O,0,5.8352422055,0.2080642971,0.7078019675|H,0,
 6.271533365,1.0562049252,0.5884754974||Version=EM64W-G09RevC.01|State=
 1-A|HF=-457.853079|RMSD=5.538e-009|Dipole=-0.0000084,0.0001646,0.00084
 69|Quadrupole=2.2615703,2.1742042,-4.4357745,-0.0315301,-0.263581,-0.8
 083459|PG=C01 [X(C6H6O3)]||@


 A people that values its privileges above its principles soon loses both.
 -- Dwight D. Eisenhower
 Job cpu time:  0 days  0 hours  2 minutes 21.0 seconds.
 File lengths (MBytes):  RWF=     34 Int=      0 D2E=      0 Chk=      5 Scr=      1
 Normal termination of Gaussian 09 at Wed Jul 03 16:28:39 2019.
