 Entering Link 1 = C:\Program Files\G09W\l1.exe PID=      4604.
  
 Copyright (c) 1988,1990,1992,1993,1995,1998,2003,2009,2011,
            Gaussian, Inc.  All Rights Reserved.
  
 This is part of the Gaussian(R) 09 program.  It is based on
 the Gaussian(R) 03 system (copyright 2003, Gaussian, Inc.),
 the Gaussian(R) 98 system (copyright 1998, Gaussian, Inc.),
 the Gaussian(R) 94 system (copyright 1995, Gaussian, Inc.),
 the Gaussian 92(TM) system (copyright 1992, Gaussian, Inc.),
 the Gaussian 90(TM) system (copyright 1990, Gaussian, Inc.),
 the Gaussian 88(TM) system (copyright 1988, Gaussian, Inc.),
 the Gaussian 86(TM) system (copyright 1986, Carnegie Mellon
 University), and the Gaussian 82(TM) system (copyright 1983,
 Carnegie Mellon University). Gaussian is a federally registered
 trademark of Gaussian, Inc.
  
 This software contains proprietary and confidential information,
 including trade secrets, belonging to Gaussian, Inc.
  
 This software is provided under written license and may be
 used, copied, transmitted, or stored only in accord with that
 written license.
  
 The following legend is applicable only to US Government
 contracts under FAR:
  
                    RESTRICTED RIGHTS LEGEND
  
 Use, reproduction and disclosure by the US Government is
 subject to restrictions as set forth in subparagraphs (a)
 and (c) of the Commercial Computer Software - Restricted
 Rights clause in FAR 52.227-19.
  
 Gaussian, Inc.
 340 Quinnipiac St., Bldg. 40, Wallingford CT 06492
  
  
 ---------------------------------------------------------------
 Warning -- This program may not be used in any manner that
 competes with the business of Gaussian, Inc. or will provide
 assistance to any competitor of Gaussian, Inc.  The licensee
 of this program is prohibited from giving any competitor of
 Gaussian, Inc. access to this program.  By using this program,
 the user acknowledges that Gaussian, Inc. is engaged in the
 business of creating and licensing software in the field of
 computational chemistry and represents and warrants to the
 licensee that it is not a competitor of Gaussian, Inc. and that
 it will not use this program in any manner prohibited above.
 ---------------------------------------------------------------
  

 Cite this work as:
 Gaussian 09, Revision C.01,
 M. J. Frisch, G. W. Trucks, H. B. Schlegel, G. E. Scuseria, 
 M. A. Robb, J. R. Cheeseman, G. Scalmani, V. Barone, B. Mennucci, 
 G. A. Petersson, H. Nakatsuji, M. Caricato, X. Li, H. P. Hratchian, 
 A. F. Izmaylov, J. Bloino, G. Zheng, J. L. Sonnenberg, M. Hada, 
 M. Ehara, K. Toyota, R. Fukuda, J. Hasegawa, M. Ishida, T. Nakajima, 
 Y. Honda, O. Kitao, H. Nakai, T. Vreven, J. A. Montgomery, Jr., 
 J. E. Peralta, F. Ogliaro, M. Bearpark, J. J. Heyd, E. Brothers, 
 K. N. Kudin, V. N. Staroverov, T. Keith, R. Kobayashi, J. Normand, 
 K. Raghavachari, A. Rendell, J. C. Burant, S. S. Iyengar, J. Tomasi, 
 M. Cossi, N. Rega, J. M. Millam, M. Klene, J. E. Knox, J. B. Cross, 
 V. Bakken, C. Adamo, J. Jaramillo, R. Gomperts, R. E. Stratmann, 
 O. Yazyev, A. J. Austin, R. Cammi, C. Pomelli, J. W. Ochterski, 
 R. L. Martin, K. Morokuma, V. G. Zakrzewski, G. A. Voth, 
 P. Salvador, J. J. Dannenberg, S. Dapprich, A. D. Daniels, 
 O. Farkas, J. B. Foresman, J. V. Ortiz, J. Cioslowski, 
 and D. J. Fox, Gaussian, Inc., Wallingford CT, 2010.
 
 ******************************************
 Gaussian 09:  EM64W-G09RevC.01 23-Sep-2011
                11-Oct-2016 
 ******************************************
 %chk=pyroh
 %mem=500Mb
 %NProcShared=4
 Will use up to    4 processors via shared memory.
 -------------------
 # MP2/6-311+G** Opt
 -------------------
 1/18=20,19=15,38=1/1,3;
 2/9=110,12=2,17=6,18=5,40=1/2;
 3/5=4,6=6,7=111,11=9,16=1,25=1,30=1,71=1/1,2,3;
 4//1;
 5/5=2,38=5/2;
 8/6=4,10=2/1;
 9/15=2,16=-3/6;
 10/5=1/2;
 6/7=2,8=2,9=2,10=2/1;
 7/12=2/1,2,3,16;
 1/18=20,19=15/3(2);
 2/9=110/2;
 99//99;
 2/9=110/2;
 3/5=4,6=6,7=111,11=9,16=1,25=1,30=1,71=1/1,2,3;
 4/5=5,16=3/1;
 5/5=2,38=5/2;
 8/6=4,10=2/1;
 9/15=2,16=-3/6;
 10/5=1/2;
 7/12=2/1,2,3,16;
 1/18=20,19=15/3(-8);
 2/9=110/2;
 6/7=2,8=2,9=2,10=2/1;
 99//99;
 ----
 PyOH
 ----
 Charge =  0 Multiplicity = 1
 Symbolic Z-Matrix:
 C                    -6.31506  -1.18017   0. 
 C                    -4.90818  -1.18017   0. 
 C                    -4.24149   0.04644   0. 
 C                    -4.99556   1.22123  -0.00024 
 C                    -6.39876   1.11842  -0.00038 
 N                    -7.05829  -0.05653  -0.0002 
 H                    -3.14294   0.08622  -0.00095 
 H                    -4.35345  -2.12707   0.00026 
 H                    -4.51152   2.20615  -0.00034 
 H                    -7.03211   2.02348  -0.00046 
 O                    -7.04722  -2.40852   0.00016 
 H                    -7.11128  -2.74327   0.89762 
 

 GradGradGradGradGradGradGradGradGradGradGradGradGradGradGradGradGradGrad
 Berny optimization.
 Initialization pass.
                           ----------------------------
                           !    Initial Parameters    !
                           ! (Angstroms and Degrees)  !
 --------------------------                            --------------------------
 ! Name  Definition              Value          Derivative Info.                !
 --------------------------------------------------------------------------------
 ! R1    R(1,2)                  1.4069         estimate D2E/DX2                !
 ! R2    R(1,6)                  1.3472         estimate D2E/DX2                !
 ! R3    R(1,11)                 1.43           estimate D2E/DX2                !
 ! R4    R(2,3)                  1.3961         estimate D2E/DX2                !
 ! R5    R(2,8)                  1.0974         estimate D2E/DX2                !
 ! R6    R(3,4)                  1.396          estimate D2E/DX2                !
 ! R7    R(3,7)                  1.0993         estimate D2E/DX2                !
 ! R8    R(4,5)                  1.407          estimate D2E/DX2                !
 ! R9    R(4,9)                  1.0974         estimate D2E/DX2                !
 ! R10   R(5,6)                  1.3474         estimate D2E/DX2                !
 ! R11   R(5,10)                 1.1047         estimate D2E/DX2                !
 ! R12   R(11,12)                0.96           estimate D2E/DX2                !
 ! A1    A(2,1,6)              123.4828         estimate D2E/DX2                !
 ! A2    A(2,1,11)             120.7972         estimate D2E/DX2                !
 ! A3    A(6,1,11)             115.72           estimate D2E/DX2                !
 ! A4    A(1,2,3)              118.5252         estimate D2E/DX2                !
 ! A5    A(1,2,8)              120.3635         estimate D2E/DX2                !
 ! A6    A(3,2,8)              121.1114         estimate D2E/DX2                !
 ! A7    A(2,3,4)              118.7792         estimate D2E/DX2                !
 ! A8    A(2,3,7)              120.5988         estimate D2E/DX2                !
 ! A9    A(4,3,7)              120.6219         estimate D2E/DX2                !
 ! A10   A(3,4,5)              118.5054         estimate D2E/DX2                !
 ! A11   A(3,4,9)              121.1328         estimate D2E/DX2                !
 ! A12   A(5,4,9)              120.3618         estimate D2E/DX2                !
 ! A13   A(4,5,6)              123.4969         estimate D2E/DX2                !
 ! A14   A(4,5,10)             120.7935         estimate D2E/DX2                !
 ! A15   A(6,5,10)             115.7097         estimate D2E/DX2                !
 ! A16   A(1,6,5)              117.2105         estimate D2E/DX2                !
 ! A17   A(1,11,12)            109.5            estimate D2E/DX2                !
 ! D1    D(6,1,2,3)              0.01           estimate D2E/DX2                !
 ! D2    D(6,1,2,8)            179.9941         estimate D2E/DX2                !
 ! D3    D(11,1,2,3)          -179.9926         estimate D2E/DX2                !
 ! D4    D(11,1,2,8)            -0.0086         estimate D2E/DX2                !
 ! D5    D(2,1,6,5)             -0.001          estimate D2E/DX2                !
 ! D6    D(11,1,6,5)          -179.9985         estimate D2E/DX2                !
 ! D7    D(2,1,11,12)           82.6083         estimate D2E/DX2                !
 ! D8    D(6,1,11,12)          -97.3941         estimate D2E/DX2                !
 ! D9    D(1,2,3,4)             -0.0113         estimate D2E/DX2                !
 ! D10   D(1,2,3,7)           -179.9425         estimate D2E/DX2                !
 ! D11   D(8,2,3,4)           -179.9952         estimate D2E/DX2                !
 ! D12   D(8,2,3,7)              0.0736         estimate D2E/DX2                !
 ! D13   D(2,3,4,5)              0.0043         estimate D2E/DX2                !
 ! D14   D(2,3,4,9)           -179.9944         estimate D2E/DX2                !
 ! D15   D(7,3,4,5)            179.9354         estimate D2E/DX2                !
 ! D16   D(7,3,4,9)             -0.0632         estimate D2E/DX2                !
 ! D17   D(3,4,5,6)              0.0051         estimate D2E/DX2                !
 ! D18   D(3,4,5,10)           179.9933         estimate D2E/DX2                !
 ! D19   D(9,4,5,6)           -179.9962         estimate D2E/DX2                !
 ! D20   D(9,4,5,10)            -0.008          estimate D2E/DX2                !
 ! D21   D(4,5,6,1)             -0.0067         estimate D2E/DX2                !
 ! D22   D(10,5,6,1)          -179.9955         estimate D2E/DX2                !
 --------------------------------------------------------------------------------
 Trust Radius=3.00D-01 FncErr=1.00D-07 GrdErr=1.00D-07
 Number of steps in this run=     61 maximum allowed number of steps=    100.
 GradGradGradGradGradGradGradGradGradGradGradGradGradGradGradGradGradGrad

                          Input orientation:                          
 ---------------------------------------------------------------------
 Center     Atomic      Atomic             Coordinates (Angstroms)
 Number     Number       Type             X           Y           Z
 ---------------------------------------------------------------------
      1          6           0       -6.315055   -1.180167    0.000000
      2          6           0       -4.908177   -1.180167    0.000000
      3          6           0       -4.241486    0.046440    0.000000
      4          6           0       -4.995559    1.221227   -0.000241
      5          6           0       -6.398761    1.118422   -0.000382
      6          7           0       -7.058291   -0.056529   -0.000197
      7          1           0       -3.142942    0.086216   -0.000950
      8          1           0       -4.353445   -2.127068    0.000264
      9          1           0       -4.511523    2.206151   -0.000342
     10          1           0       -7.032110    2.023485   -0.000463
     11          8           0       -7.047215   -2.408516    0.000158
     12          1           0       -7.111284   -2.743274    0.897617
 ---------------------------------------------------------------------
                    Distance matrix (angstroms):
                    1          2          3          4          5
     1  C    0.000000
     2  C    1.406878   0.000000
     3  C    2.409202   1.396081   0.000000
     4  C    2.740030   2.402983   1.395977   0.000000
     5  C    2.300113   2.739590   2.408938   1.406963   0.000000
     6  N    1.347205   2.426016   2.818686   2.426422   1.347401
     7  H    3.415557   2.172506   1.099264   2.172657   3.415524
     8  H    2.178195   1.097428   2.176390   3.409309   3.836212
     9  H    3.836649   3.409470   2.176527   1.097436   2.178261
    10  H    3.282919   3.843758   3.419984   2.188871   1.104658
    11  O    1.430000   2.466643   3.728126   4.169452   3.586054
    12  H    1.970533   2.846524   4.101702   4.582544   4.028249
                    6          7          8          9         10
     6  N    0.000000
     7  H    3.917950   0.000000
     8  H    3.406365   2.522686   0.000000
     9  H    3.406721   2.523319   4.336101   0.000000
    10  H    2.080179   4.344956   4.939872   2.527197   0.000000
    11  O    2.352013   4.633254   2.708433   5.265443   4.432027
    12  H    2.833280   4.955923   2.964899   5.662322   4.851269
                   11         12
    11  O    0.000000
    12  H    0.960000   0.000000
 Stoichiometry    C5H5NO
 Framework group  C1[X(C5H5NO)]
 Deg. of freedom    30
 Full point group                 C1      NOp   1
 Largest Abelian subgroup         C1      NOp   1
 Largest concise Abelian subgroup C1      NOp   1
                         Standard orientation:                         
 ---------------------------------------------------------------------
 Center     Atomic      Atomic             Coordinates (Angstroms)
 Number     Number       Type             X           Y           Z
 ---------------------------------------------------------------------
      1          6           0        0.900501   -0.006451   -0.038245
      2          6           0        0.201750    1.214555   -0.024253
      3          6           0       -1.193633    1.183830    0.007412
      4          6           0       -1.838413   -0.054211    0.023648
      5          6           0       -1.052293   -1.220957    0.007453
      6          7           0        0.294719   -1.209678   -0.022901
      7          1           0       -1.773777    2.117478    0.018200
      8          1           0        0.747813    2.166386   -0.037797
      9          1           0       -2.933385   -0.123400    0.048463
     10          1           0       -1.523004   -2.220234    0.019545
     11          8           0        2.329916   -0.031680   -0.070439
     12          1           0        2.672519    0.080364    0.819319
 ---------------------------------------------------------------------
 Rotational constants (GHZ):      5.7500723      2.6336956      1.8163818
 Standard basis: 6-311+G(d,p) (5D, 7F)
 There are   184 symmetry adapted basis functions of A   symmetry.
 Integral buffers will be    131072 words long.
 Raffenetti 1 integral format.
 Two-electron integral symmetry is turned on.
   184 basis functions,   292 primitive gaussians,   191 cartesian basis functions
    25 alpha electrons       25 beta electrons
       nuclear repulsion energy       271.3091772185 Hartrees.
 NAtoms=   12 NActive=   12 NUniq=   12 SFac= 1.00D+00 NAtFMM=   60 NAOKFM=F Big=F
 One-electron integrals computed using PRISM.
 NBasis=   184 RedAO= T  NBF=   184
 NBsUse=   184 1.00D-06 NBFU=   184
 Harris functional with IExCor=  205 diagonalized for initial guess.
 ExpMin= 4.38D-02 ExpMax= 8.59D+03 ExpMxC= 1.30D+03 IAcc=2 IRadAn=         4 AccDes= 0.00D+00
 HarFok:  IExCor=  205 AccDes= 0.00D+00 IRadAn=         4 IDoV= 1
 ScaDFX=  1.000000  1.000000  1.000000  1.000000
 FoFCou: FMM=F IPFlag=           0 FMFlag=      100000 FMFlg1=           0
         NFxFlg=           0 DoJE=T BraDBF=F KetDBF=T FulRan=T
         Omega=  0.000000  0.000000  1.000000  0.000000  0.000000 ICntrl=     500 IOpCl=  0
         NMat0=    1 NMatS0=    1 NMatT0=    0 NMatD0=    1 NMtDS0=    0 NMtDT0=    0
         I1Cent=           4 NGrid=           0.
 Petite list used in FoFCou.
 Initial guess orbital symmetries:
       Occupied  (A) (A) (A) (A) (A) (A) (A) (A) (A) (A) (A) (A)
                 (A) (A) (A) (A) (A) (A) (A) (A) (A) (A) (A) (A)
                 (A)
       Virtual   (A) (A) (A) (A) (A) (A) (A) (A) (A) (A) (A) (A)
                 (A) (A) (A) (A) (A) (A) (A) (A) (A) (A) (A) (A)
                 (A) (A) (A) (A) (A) (A) (A) (A) (A) (A) (A) (A)
                 (A) (A) (A) (A) (A) (A) (A) (A) (A) (A) (A) (A)
                 (A) (A) (A) (A) (A) (A) (A) (A) (A) (A) (A) (A)
                 (A) (A) (A) (A) (A) (A) (A) (A) (A) (A) (A) (A)
                 (A) (A) (A) (A) (A) (A) (A) (A) (A) (A) (A) (A)
                 (A) (A) (A) (A) (A) (A) (A) (A) (A) (A) (A) (A)
                 (A) (A) (A) (A) (A) (A) (A) (A) (A) (A) (A) (A)
                 (A) (A) (A) (A) (A) (A) (A) (A) (A) (A) (A) (A)
                 (A) (A) (A) (A) (A) (A) (A) (A) (A) (A) (A) (A)
                 (A) (A) (A) (A) (A) (A) (A) (A) (A) (A) (A) (A)
                 (A) (A) (A) (A) (A) (A) (A) (A) (A) (A) (A) (A)
                 (A) (A) (A)
 The electronic state of the initial guess is 1-A.
 Requested convergence on RMS density matrix=1.00D-08 within 128 cycles.
 Requested convergence on MAX density matrix=1.00D-06.
 Requested convergence on             energy=1.00D-06.
 No special actions if energy rises.
 Initial convergence to 1.0D-05 achieved.  Increase integral accuracy.
 SCF Done:  E(RHF) =  -321.628401700     A.U. after   15 cycles
             Convg  =    0.7118D-08             -V/T =  2.0025
 ExpMin= 4.38D-02 ExpMax= 8.59D+03 ExpMxC= 1.30D+03 IAcc=3 IRadAn=         5 AccDes= 0.00D+00
 HarFok:  IExCor=  205 AccDes= 0.00D+00 IRadAn=         5 IDoV=-2
 ScaDFX=  1.000000  1.000000  1.000000  1.000000
 Range of M.O.s used for correlation:     8   184
 NBasis=   184 NAE=    25 NBE=    25 NFC=     7 NFV=     0
 NROrb=    177 NOA=    18 NOB=    18 NVA=   159 NVB=   159

 **** Warning!!: The largest alpha MO coefficient is  0.95346535D+02

 Disk-based method using ON**2 memory for 18 occupieds at a time.
 Estimated scratch disk usage=   265703344 words.
 Actual    scratch disk usage=   217790384 words.
 JobTyp=1 Pass  1:  I=   8 to  25 NPSUse=  4 ParTrn=T ParDer=T DoDerP=T.
 Spin components of T(2) and E(2):
     alpha-alpha T2 =       0.5072109138D-01 E2=     -0.1424516847D+00
     alpha-beta  T2 =       0.2608309557D+00 E2=     -0.7752008593D+00
     beta-beta   T2 =       0.5072109138D-01 E2=     -0.1424516847D+00
 ANorm=    0.1167164572D+01
 E2 =    -0.1060104229D+01 EUMP2 =    -0.32268850592819D+03
          IDoAtm=111111111111
          Differentiating once with respect to electric field.
                with respect to dipole field.
          Differentiating once with respect to nuclear coordinates.
          There are     1 degrees of freedom in the 1st order CPHF.  IDoFFX=0.
 LinEq1:  Iter=  0 NonCon=     1 RMS=4.17D-03 Max=5.59D-02
 AX will form     1 AO Fock derivatives at one time.
 LinEq1:  Iter=  1 NonCon=     1 RMS=1.04D-03 Max=1.44D-02
 LinEq1:  Iter=  2 NonCon=     1 RMS=4.51D-04 Max=1.04D-02
 LinEq1:  Iter=  3 NonCon=     1 RMS=1.65D-04 Max=2.57D-03
 LinEq1:  Iter=  4 NonCon=     1 RMS=7.72D-05 Max=1.99D-03
 LinEq1:  Iter=  5 NonCon=     1 RMS=2.30D-05 Max=2.47D-04
 LinEq1:  Iter=  6 NonCon=     1 RMS=8.22D-06 Max=1.51D-04
 LinEq1:  Iter=  7 NonCon=     1 RMS=2.85D-06 Max=2.91D-05
 LinEq1:  Iter=  8 NonCon=     1 RMS=7.22D-07 Max=7.98D-06
 LinEq1:  Iter=  9 NonCon=     1 RMS=2.60D-07 Max=5.87D-06
 LinEq1:  Iter= 10 NonCon=     1 RMS=8.51D-08 Max=1.27D-06
 LinEq1:  Iter= 11 NonCon=     1 RMS=2.71D-08 Max=6.52D-07
 LinEq1:  Iter= 12 NonCon=     1 RMS=1.11D-08 Max=2.22D-07
 LinEq1:  Iter= 13 NonCon=     1 RMS=4.08D-09 Max=8.07D-08
 LinEq1:  Iter= 14 NonCon=     1 RMS=1.24D-09 Max=1.81D-08
 LinEq1:  Iter= 15 NonCon=     1 RMS=4.14D-10 Max=4.50D-09
 LinEq1:  Iter= 16 NonCon=     1 RMS=1.08D-10 Max=1.11D-09
 LinEq1:  Iter= 17 NonCon=     0 RMS=3.70D-11 Max=4.47D-10
 Linear equations converged to 1.000D-10 1.000D-09 after    17 iterations.
 End of Minotr Frequency-dependent properties file   721 does not exist.
 End of Minotr Frequency-dependent properties file   722 does not exist.

 **********************************************************************

            Population analysis using the SCF density.

 **********************************************************************

 Orbital symmetries:
       Occupied  (A) (A) (A) (A) (A) (A) (A) (A) (A) (A) (A) (A)
                 (A) (A) (A) (A) (A) (A) (A) (A) (A) (A) (A) (A)
                 (A)
       Virtual   (A) (A) (A) (A) (A) (A) (A) (A) (A) (A) (A) (A)
                 (A) (A) (A) (A) (A) (A) (A) (A) (A) (A) (A) (A)
                 (A) (A) (A) (A) (A) (A) (A) (A) (A) (A) (A) (A)
                 (A) (A) (A) (A) (A) (A) (A) (A) (A) (A) (A) (A)
                 (A) (A) (A) (A) (A) (A) (A) (A) (A) (A) (A) (A)
                 (A) (A) (A) (A) (A) (A) (A) (A) (A) (A) (A) (A)
                 (A) (A) (A) (A) (A) (A) (A) (A) (A) (A) (A) (A)
                 (A) (A) (A) (A) (A) (A) (A) (A) (A) (A) (A) (A)
                 (A) (A) (A) (A) (A) (A) (A) (A) (A) (A) (A) (A)
                 (A) (A) (A) (A) (A) (A) (A) (A) (A) (A) (A) (A)
                 (A) (A) (A) (A) (A) (A) (A) (A) (A) (A) (A) (A)
                 (A) (A) (A) (A) (A) (A) (A) (A) (A) (A) (A) (A)
                 (A) (A) (A) (A) (A) (A) (A) (A) (A) (A) (A) (A)
                 (A) (A) (A)
 The electronic state is 1-A.
 Alpha  occ. eigenvalues --  -20.58266 -15.57700 -11.35057 -11.29384 -11.27584
 Alpha  occ. eigenvalues --  -11.25737 -11.25380  -1.38647  -1.25417  -1.09834
 Alpha  occ. eigenvalues --   -1.02917  -0.87071  -0.85591  -0.73986  -0.68735
 Alpha  occ. eigenvalues --   -0.68144  -0.63986  -0.60097  -0.58787  -0.54340
 Alpha  occ. eigenvalues --   -0.52961  -0.50372  -0.43252  -0.39232  -0.34838
 Alpha virt. eigenvalues --    0.06113   0.07355   0.07855   0.08535   0.09446
 Alpha virt. eigenvalues --    0.10258   0.10420   0.11581   0.13356   0.14032
 Alpha virt. eigenvalues --    0.14370   0.15099   0.15410   0.19063   0.19207
 Alpha virt. eigenvalues --    0.19903   0.20256   0.20859   0.21217   0.24928
 Alpha virt. eigenvalues --    0.25869   0.26640   0.26915   0.29557   0.30485
 Alpha virt. eigenvalues --    0.31161   0.31699   0.32801   0.34595   0.35687
 Alpha virt. eigenvalues --    0.35953   0.36300   0.37872   0.40150   0.41959
 Alpha virt. eigenvalues --    0.43371   0.44559   0.47397   0.48971   0.52448
 Alpha virt. eigenvalues --    0.53360   0.62673   0.66650   0.68499   0.69624
 Alpha virt. eigenvalues --    0.70144   0.71940   0.74888   0.76330   0.77360
 Alpha virt. eigenvalues --    0.77879   0.81742   0.82221   0.83003   0.87533
 Alpha virt. eigenvalues --    0.90422   0.92207   0.94519   0.96287   0.98612
 Alpha virt. eigenvalues --    0.99883   1.02179   1.04017   1.05639   1.06735
 Alpha virt. eigenvalues --    1.11668   1.13593   1.16109   1.18214   1.20295
 Alpha virt. eigenvalues --    1.24469   1.25234   1.27596   1.31320   1.32336
 Alpha virt. eigenvalues --    1.37608   1.39943   1.43884   1.52026   1.55892
 Alpha virt. eigenvalues --    1.58421   1.65461   1.68090   1.75615   1.77024
 Alpha virt. eigenvalues --    1.79319   1.80752   1.82827   1.84683   1.88616
 Alpha virt. eigenvalues --    1.89259   1.92683   1.95904   1.98744   2.04073
 Alpha virt. eigenvalues --    2.04661   2.09671   2.11668   2.17123   2.19769
 Alpha virt. eigenvalues --    2.22588   2.27455   2.28978   2.31038   2.36886
 Alpha virt. eigenvalues --    2.37738   2.40154   2.47053   2.60419   2.68035
 Alpha virt. eigenvalues --    2.68749   2.71610   2.74500   2.81511   2.88301
 Alpha virt. eigenvalues --    2.89890   2.96271   2.99023   2.99701   3.03080
 Alpha virt. eigenvalues --    3.04663   3.07853   3.09014   3.16188   3.17038
 Alpha virt. eigenvalues --    3.20433   3.20931   3.26155   3.32149   3.38961
 Alpha virt. eigenvalues --    3.40414   3.49641   3.57748   3.67665   3.69143
 Alpha virt. eigenvalues --    3.76250   3.81780   3.86697   3.90857   4.08059
 Alpha virt. eigenvalues --    4.20864   4.26860   4.39421   4.40635   4.42302
 Alpha virt. eigenvalues --    4.49931   4.80769   4.91118   5.63747   5.66515
 Alpha virt. eigenvalues --    5.91317   6.25358  24.76732  24.99357  25.09339
 Alpha virt. eigenvalues --   25.18312  25.26143  37.05114  51.62513
          Condensed to atoms (all electrons):
              1          2          3          4          5          6
     1  C    6.012502  -0.453780   0.202204  -0.515832   0.382977   0.065503
     2  C   -0.453780   6.258911  -0.058608   0.217212  -0.518960   0.180541
     3  C    0.202204  -0.058608   5.276269   0.334447   0.183514  -0.044661
     4  C   -0.515832   0.217212   0.334447   5.701804  -0.194166   0.192726
     5  C    0.382977  -0.518960   0.183514  -0.194166   5.774069   0.091669
     6  N    0.065503   0.180541  -0.044661   0.192726   0.091669   6.861044
     7  H   -0.003842  -0.016836   0.387874   0.009455  -0.007642   0.001400
     8  H   -0.022752   0.445974  -0.044626   0.005069  -0.007086   0.004105
     9  H   -0.006095   0.006663  -0.026980   0.419684  -0.023498   0.004432
    10  H    0.006367   0.001414  -0.001820  -0.055215   0.460222  -0.065846
    11  O    0.295909  -0.191810  -0.009360  -0.002170   0.017410  -0.089859
    12  H    0.027797  -0.014155  -0.000513   0.000936  -0.002085   0.000979
              7          8          9         10         11         12
     1  C   -0.003842  -0.022752  -0.006095   0.006367   0.295909   0.027797
     2  C   -0.016836   0.445974   0.006663   0.001414  -0.191810  -0.014155
     3  C    0.387874  -0.044626  -0.026980  -0.001820  -0.009360  -0.000513
     4  C    0.009455   0.005069   0.419684  -0.055215  -0.002170   0.000936
     5  C   -0.007642  -0.007086  -0.023498   0.460222   0.017410  -0.002085
     6  N    0.001400   0.004105   0.004432  -0.065846  -0.089859   0.000979
     7  H    0.480500  -0.003368  -0.003732  -0.000095  -0.000297   0.000003
     8  H   -0.003368   0.472683  -0.000116   0.000032  -0.002649   0.000039
     9  H   -0.003732  -0.000116   0.484391  -0.002037   0.000108  -0.000003
    10  H   -0.000095   0.000032  -0.002037   0.507625   0.000226  -0.000013
    11  O   -0.000297  -0.002649   0.000108   0.000226   8.038715   0.304646
    12  H    0.000003   0.000039  -0.000003  -0.000013   0.304646   0.409421
 Mulliken atomic charges:
              1
     1  C    0.009041
     2  C    0.143433
     3  C   -0.197741
     4  C   -0.113950
     5  C   -0.156423
     6  N   -0.202033
     7  H    0.156579
     8  H    0.152693
     9  H    0.147181
    10  H    0.149141
    11  O   -0.360869
    12  H    0.272947
 Sum of Mulliken atomic charges =   0.00000
 Mulliken charges with hydrogens summed into heavy atoms:
              1
     1  C    0.009041
     2  C    0.296126
     3  C   -0.041162
     4  C    0.033231
     5  C   -0.007282
     6  N   -0.202033
    11  O   -0.087922
 Sum of Mulliken charges with hydrogens summed into heavy atoms =   0.00000
 Electronic spatial extent (au):  <R**2>=            652.3624
 Charge=              0.0000 electrons
 Dipole moment (field-independent basis, Debye):
    X=             -2.2088    Y=              2.2432    Z=              1.6371  Tot=              3.5483
 Quadrupole moment (field-independent basis, Debye-Ang):
   XX=            -37.7372   YY=            -39.4409   ZZ=            -42.6832
   XY=              3.0813   XZ=              4.8879   YZ=              0.0611
 Traceless Quadrupole moment (field-independent basis, Debye-Ang):
   XX=              2.2166   YY=              0.5129   ZZ=             -2.7295
   XY=              3.0813   XZ=              4.8879   YZ=              0.0611
 Octapole moment (field-independent basis, Debye-Ang**2):
  XXX=              0.3024  YYY=              8.6485  ZZZ=              1.7402  XYY=             -6.4663
  XXY=              2.9491  XXZ=             14.5709  XZZ=             10.5842  YZZ=             -1.2191
  YYZ=              0.1933  XYZ=              0.3977
 Hexadecapole moment (field-independent basis, Debye-Ang**3):
 XXXX=           -481.4705 YYYY=           -267.1656 ZZZZ=            -50.0112 XXXY=              4.6553
 XXXZ=             40.6300 YYYX=             12.0473 YYYZ=             -0.4754 ZZZX=              6.1392
 ZZZY=              0.2417 XXYY=           -125.6782 XXZZ=            -92.0971 YYZZ=            -61.8497
 XXYZ=              1.2291 YYXZ=              0.6656 ZZXY=              0.4836
 N-N= 2.713091772185D+02 E-N=-1.295164561302D+03  KE= 3.208356979650D+02
 Calling FoFJK, ICntrl=      2127 FMM=F ISym2X=0 I1Cent= 0 IOpClX= 0 NMat=1 NMatS=1 NMatT=0.
 ***** Axes restored to original set *****
 -------------------------------------------------------------------
 Center     Atomic                   Forces (Hartrees/Bohr)
 Number     Number              X              Y              Z
 -------------------------------------------------------------------
      1        6          -0.017369493   -0.008679955    0.009888144
      2        6          -0.002332013   -0.011825064   -0.001202775
      3        6           0.006517346    0.000611395   -0.000486741
      4        6          -0.004176496    0.008649242   -0.000069614
      5        6           0.001492149    0.004695561   -0.001281956
      6        7           0.007235998   -0.011636277   -0.000296488
      7        1          -0.008659894   -0.001114707    0.000082583
      8        1          -0.005298290    0.006274998   -0.000328087
      9        1          -0.004054941   -0.006931663    0.000110882
     10        1           0.006579011   -0.009128061   -0.000057341
     11        8           0.018005757    0.025345595   -0.009362904
     12        1           0.002060866    0.003738936    0.003004297
 -------------------------------------------------------------------
 Cartesian Forces:  Max     0.025345595 RMS     0.008142956

 GradGradGradGradGradGradGradGradGradGradGradGradGradGradGradGradGradGrad
 Berny optimization.
 Internal  Forces:  Max     0.035258002 RMS     0.006591226
 Search for a local minimum.
 Step number   1 out of a maximum of   61
 All quantities printed in internal units (Hartrees-Bohrs-Radians)
 Mixed Optimization -- RFO/linear search
 Second derivative matrix not updated -- first step.
 ITU=  0
     Eigenvalues ---    0.01295   0.01949   0.02054   0.02056   0.02087
     Eigenvalues ---    0.02101   0.02137   0.02141   0.02314   0.16000
     Eigenvalues ---    0.16000   0.16000   0.16000   0.16000   0.22000
     Eigenvalues ---    0.22423   0.24427   0.25000   0.33172   0.33764
     Eigenvalues ---    0.33967   0.33968   0.40989   0.41070   0.44029
     Eigenvalues ---    0.44506   0.46002   0.53630   0.54785   0.55473
 RFO step:  Lambda=-6.39944548D-03 EMin= 1.29493782D-02
 Linear search not attempted -- first point.
 Iteration  1 RMS(Cart)=  0.03313626 RMS(Int)=  0.00097772
 Iteration  2 RMS(Cart)=  0.00088837 RMS(Int)=  0.00043700
 Iteration  3 RMS(Cart)=  0.00000121 RMS(Int)=  0.00043700
 Iteration  4 RMS(Cart)=  0.00000000 RMS(Int)=  0.00043700
 Variable       Old X    -DE/DX   Delta X   Delta X   Delta X     New X
                                 (Linear)    (Quad)   (Total)
    R1        2.65861  -0.00953   0.00000  -0.02172  -0.02151   2.63710
    R2        2.54585  -0.01613   0.00000  -0.02975  -0.02955   2.51630
    R3        2.70231  -0.03526   0.00000  -0.08470  -0.08470   2.61761
    R4        2.63821  -0.00094   0.00000  -0.00126  -0.00124   2.63697
    R5        2.07384  -0.00809   0.00000  -0.02338  -0.02338   2.05046
    R6        2.63801   0.00026   0.00000   0.00185   0.00166   2.63968
    R7        2.07731  -0.00869   0.00000  -0.02527  -0.02527   2.05204
    R8        2.65877  -0.00836   0.00000  -0.01800  -0.01821   2.64057
    R9        2.07385  -0.00801   0.00000  -0.02314  -0.02314   2.05071
   R10        2.54622  -0.00297   0.00000  -0.00589  -0.00592   2.54030
   R11        2.08750  -0.01125   0.00000  -0.03327  -0.03327   2.05423
   R12        1.81414   0.00137   0.00000   0.00244   0.00244   1.81657
    A1        2.15518   0.00583   0.00000   0.01988   0.01897   2.17415
    A2        2.10831  -0.00651   0.00000  -0.02396  -0.02561   2.08270
    A3        2.01970   0.00068   0.00000   0.00407   0.00234   2.02203
    A4        2.06865  -0.00264   0.00000  -0.01064  -0.01026   2.05839
    A5        2.10074  -0.00013   0.00000  -0.00340  -0.00363   2.09711
    A6        2.11379   0.00277   0.00000   0.01404   0.01382   2.12761
    A7        2.07309  -0.00125   0.00000  -0.00063  -0.00063   2.07246
    A8        2.10485  -0.00020   0.00000  -0.00468  -0.00470   2.10015
    A9        2.10525   0.00146   0.00000   0.00531   0.00529   2.11054
   A10        2.06831  -0.00220   0.00000  -0.00532  -0.00555   2.06276
   A11        2.11417   0.00170   0.00000   0.00629   0.00639   2.12056
   A12        2.10071   0.00050   0.00000  -0.00096  -0.00086   2.09985
   A13        2.15543   0.00140   0.00000   0.00618   0.00614   2.16157
   A14        2.10824  -0.00086   0.00000  -0.00407  -0.00406   2.10419
   A15        2.01951  -0.00054   0.00000  -0.00211  -0.00209   2.01742
   A16        2.04571  -0.00114   0.00000  -0.00947  -0.00894   2.03677
   A17        1.91114  -0.00909   0.00000  -0.05462  -0.05462   1.85651
    D1        0.00018   0.00064   0.00000   0.02615   0.02636   0.02653
    D2        3.14149   0.00102   0.00000   0.03931   0.03938  -3.10232
    D3       -3.14146  -0.00206   0.00000  -0.07780  -0.07745   3.06427
    D4       -0.00015  -0.00168   0.00000  -0.06464  -0.06442  -0.06457
    D5       -0.00002  -0.00042   0.00000  -0.01916  -0.01957  -0.01958
    D6       -3.14157   0.00214   0.00000   0.07995   0.08099  -3.06058
    D7        1.44179   0.00170   0.00000   0.07151   0.07087   1.51265
    D8       -1.69985  -0.00079   0.00000  -0.02473  -0.02409  -1.72394
    D9       -0.00020  -0.00035   0.00000  -0.01331  -0.01310  -0.01329
   D10       -3.14059  -0.00011   0.00000  -0.00483  -0.00476   3.13784
   D11       -3.14151  -0.00074   0.00000  -0.02657  -0.02636   3.11532
   D12        0.00128  -0.00050   0.00000  -0.01809  -0.01802  -0.01674
   D13        0.00007  -0.00008   0.00000  -0.00413  -0.00413  -0.00406
   D14       -3.14149   0.00009   0.00000   0.00302   0.00298  -3.13852
   D15        3.14047  -0.00033   0.00000  -0.01262  -0.01253   3.12794
   D16       -0.00110  -0.00015   0.00000  -0.00547  -0.00542  -0.00652
   D17        0.00009   0.00031   0.00000   0.01150   0.01139   0.01148
   D18        3.14148   0.00017   0.00000   0.00756   0.00754  -3.13417
   D19       -3.14153   0.00014   0.00000   0.00441   0.00437  -3.13716
   D20       -0.00014   0.00000   0.00000   0.00047   0.00052   0.00038
   D21       -0.00012  -0.00006   0.00000  -0.00003   0.00008  -0.00004
   D22       -3.14151   0.00007   0.00000   0.00372   0.00375  -3.13776
         Item               Value     Threshold  Converged?
 Maximum Force            0.035258     0.000450     NO 
 RMS     Force            0.006591     0.000300     NO 
 Maximum Displacement     0.089367     0.001800     NO 
 RMS     Displacement     0.033408     0.001200     NO 
 Predicted change in Energy=-3.336876D-03
 GradGradGradGradGradGradGradGradGradGradGradGradGradGradGradGradGradGrad

                          Input orientation:                          
 ---------------------------------------------------------------------
 Center     Atomic      Atomic             Coordinates (Angstroms)
 Number     Number       Type             X           Y           Z
 ---------------------------------------------------------------------
      1          6           0       -6.311898   -1.170072    0.043942
      2          6           0       -4.916695   -1.185888    0.020297
      3          6           0       -4.249155    0.039423    0.005720
      4          6           0       -5.003312    1.215184   -0.000871
      5          6           0       -6.396350    1.105832    0.002504
      6          7           0       -7.055407   -0.065586    0.024551
      7          1           0       -3.163871    0.072464   -0.009274
      8          1           0       -4.382525   -2.130167    0.001768
      9          1           0       -4.530620    2.191912   -0.015023
     10          1           0       -7.020648    1.995658   -0.009336
     11          8           0       -7.005441   -2.366562   -0.034409
     12          1           0       -7.079926   -2.695984    0.865597
 ---------------------------------------------------------------------
                    Distance matrix (angstroms):
                    1          2          3          4          5
     1  C    0.000000
     2  C    1.395493   0.000000
     3  C    2.391495   1.395425   0.000000
     4  C    2.721003   2.402727   1.396857   0.000000
     5  C    2.277848   2.727943   2.397432   1.397327   0.000000
     6  N    1.331567   2.414370   2.808279   2.419114   1.344271
     7  H    3.384790   2.157943   1.085891   2.165508   3.393657
     8  H    2.155468   1.085054   2.173689   3.402463   3.811453
     9  H    3.805176   3.399976   2.170912   1.085189   2.158894
    10  H    3.244535   3.814411   3.392381   2.163067   1.087050
    11  O    1.385181   2.399967   3.658891   4.103480   3.525603
    12  H    1.895623   2.770287   4.029281   4.512242   3.958031
                    6          7          8          9         10
     6  N    0.000000
     7  H    3.894131   0.000000
     8  H    3.377470   2.517305   0.000000
     9  H    3.387095   2.521923   4.324648   0.000000
    10  H    2.061815   4.309687   4.897167   2.497757   0.000000
    11  O    2.302273   4.550509   2.633795   5.186983   4.362318
    12  H    2.761693   4.874955   2.888307   5.582650   4.772894
                   11         12
    11  O    0.000000
    12  H    0.961289   0.000000
 Stoichiometry    C5H5NO
 Framework group  C1[X(C5H5NO)]
 Deg. of freedom    30
 Full point group                 C1      NOp   1
 Largest Abelian subgroup         C1      NOp   1
 Largest concise Abelian subgroup C1      NOp   1
                         Standard orientation:                         
 ---------------------------------------------------------------------
 Center     Atomic      Atomic             Coordinates (Angstroms)
 Number     Number       Type             X           Y           Z
 ---------------------------------------------------------------------
      1          6           0        0.895420   -0.017034    0.003557
      2          6           0        0.223741    1.206125   -0.007887
      3          6           0       -1.171484    1.185943    0.004348
      4          6           0       -1.825391   -0.048386    0.011022
      5          6           0       -1.046147   -1.208207    0.000088
      6          7           0        0.298118   -1.207096   -0.003685
      7          1           0       -1.733390    2.115136   -0.000384
      8          1           0        0.783559    2.135134   -0.037702
      9          1           0       -2.908436   -0.116239    0.017711
     10          1           0       -1.514871   -2.189008   -0.002190
     11          8           0        2.276524   -0.033710   -0.101331
     12          1           0        2.617296    0.063679    0.792239
 ---------------------------------------------------------------------
 Rotational constants (GHZ):      5.8118637      2.7158582      1.8614871
 Standard basis: 6-311+G(d,p) (5D, 7F)
 There are   184 symmetry adapted basis functions of A   symmetry.
 Integral buffers will be    131072 words long.
 Raffenetti 1 integral format.
 Two-electron integral symmetry is turned on.
   184 basis functions,   292 primitive gaussians,   191 cartesian basis functions
    25 alpha electrons       25 beta electrons
       nuclear repulsion energy       274.1538407165 Hartrees.
 NAtoms=   12 NActive=   12 NUniq=   12 SFac= 1.00D+00 NAtFMM=   60 NAOKFM=F Big=F
 One-electron integrals computed using PRISM.
 NBasis=   184 RedAO= T  NBF=   184
 NBsUse=   184 1.00D-06 NBFU=   184
 Initial guess read from the read-write file.
 B after Tr=     0.000000    0.000000    0.000000
         Rot=    1.000000    0.000000    0.000000    0.000000 Ang=   0.00 deg.
 Initial guess orbital symmetries:
       Occupied  (A) (A) (A) (A) (A) (A) (A) (A) (A) (A) (A) (A)
                 (A) (A) (A) (A) (A) (A) (A) (A) (A) (A) (A) (A)
                 (A)
       Virtual   (A) (A) (A) (A) (A) (A) (A) (A) (A) (A) (A) (A)
                 (A) (A) (A) (A) (A) (A) (A) (A) (A) (A) (A) (A)
                 (A) (A) (A) (A) (A) (A) (A) (A) (A) (A) (A) (A)
                 (A) (A) (A) (A) (A) (A) (A) (A) (A) (A) (A) (A)
                 (A) (A) (A) (A) (A) (A) (A) (A) (A) (A) (A) (A)
                 (A) (A) (A) (A) (A) (A) (A) (A) (A) (A) (A) (A)
                 (A) (A) (A) (A) (A) (A) (A) (A) (A) (A) (A) (A)
                 (A) (A) (A) (A) (A) (A) (A) (A) (A) (A) (A) (A)
                 (A) (A) (A) (A) (A) (A) (A) (A) (A) (A) (A) (A)
                 (A) (A) (A) (A) (A) (A) (A) (A) (A) (A) (A) (A)
                 (A) (A) (A) (A) (A) (A) (A) (A) (A) (A) (A) (A)
                 (A) (A) (A) (A) (A) (A) (A) (A) (A) (A) (A) (A)
                 (A) (A) (A) (A) (A) (A) (A) (A) (A) (A) (A) (A)
                 (A) (A) (A)
 Harris functional with IExCor=  205 diagonalized for initial guess.
 ExpMin= 4.38D-02 ExpMax= 8.59D+03 ExpMxC= 1.30D+03 IAcc=2 IRadAn=         4 AccDes= 0.00D+00
 HarFok:  IExCor=  205 AccDes= 0.00D+00 IRadAn=         4 IDoV= 1
 ScaDFX=  1.000000  1.000000  1.000000  1.000000
 FoFCou: FMM=F IPFlag=           0 FMFlag=      100000 FMFlg1=           0
         NFxFlg=           0 DoJE=T BraDBF=F KetDBF=T FulRan=T
         Omega=  0.000000  0.000000  1.000000  0.000000  0.000000 ICntrl=     500 IOpCl=  0
         NMat0=    1 NMatS0=    1 NMatT0=    0 NMatD0=    1 NMtDS0=    0 NMtDT0=    0
         I1Cent=           4 NGrid=           0.
 Petite list used in FoFCou.
 Requested convergence on RMS density matrix=1.00D-08 within 128 cycles.
 Requested convergence on MAX density matrix=1.00D-06.
 Requested convergence on             energy=1.00D-06.
 No special actions if energy rises.
 Initial convergence to 1.0D-05 achieved.  Increase integral accuracy.
 SCF Done:  E(RHF) =  -321.635071042     A.U. after   13 cycles
             Convg  =    0.9219D-08             -V/T =  2.0015
 ExpMin= 4.38D-02 ExpMax= 8.59D+03 ExpMxC= 1.30D+03 IAcc=3 IRadAn=         5 AccDes= 0.00D+00
 HarFok:  IExCor=  205 AccDes= 0.00D+00 IRadAn=         5 IDoV=-2
 ScaDFX=  1.000000  1.000000  1.000000  1.000000
 Range of M.O.s used for correlation:     8   184
 NBasis=   184 NAE=    25 NBE=    25 NFC=     7 NFV=     0
 NROrb=    177 NOA=    18 NOB=    18 NVA=   159 NVB=   159

 **** Warning!!: The largest alpha MO coefficient is  0.96509917D+02

 Disk-based method using ON**2 memory for 18 occupieds at a time.
 Estimated scratch disk usage=   265879904 words.
 Actual    scratch disk usage=   217933664 words.
 JobTyp=1 Pass  1:  I=   8 to  25 NPSUse=  4 ParTrn=T ParDer=T DoDerP=T.
 Spin components of T(2) and E(2):
     alpha-alpha T2 =       0.5011723039D-01 E2=     -0.1422157211D+00
     alpha-beta  T2 =       0.2569308153D+00 E2=     -0.7718981454D+00
     beta-beta   T2 =       0.5011723039D-01 E2=     -0.1422157211D+00
 ANorm=    0.1164974367D+01
 E2 =    -0.1056329588D+01 EUMP2 =    -0.32269140062996D+03
          IDoAtm=111111111111
          Differentiating once with respect to electric field.
                with respect to dipole field.
          Differentiating once with respect to nuclear coordinates.
          There are     1 degrees of freedom in the 1st order CPHF.  IDoFFX=0.
 LinEq1:  Iter=  0 NonCon=     1 RMS=4.12D-03 Max=5.58D-02
 AX will form     1 AO Fock derivatives at one time.
 LinEq1:  Iter=  1 NonCon=     1 RMS=1.01D-03 Max=1.62D-02
 LinEq1:  Iter=  2 NonCon=     1 RMS=4.51D-04 Max=1.06D-02
 LinEq1:  Iter=  3 NonCon=     1 RMS=1.59D-04 Max=2.62D-03
 LinEq1:  Iter=  4 NonCon=     1 RMS=7.42D-05 Max=1.90D-03
 LinEq1:  Iter=  5 NonCon=     1 RMS=2.22D-05 Max=2.23D-04
 LinEq1:  Iter=  6 NonCon=     1 RMS=7.79D-06 Max=1.31D-04
 LinEq1:  Iter=  7 NonCon=     1 RMS=2.66D-06 Max=2.93D-05
 LinEq1:  Iter=  8 NonCon=     1 RMS=6.51D-07 Max=8.33D-06
 LinEq1:  Iter=  9 NonCon=     1 RMS=2.15D-07 Max=3.18D-06
 LinEq1:  Iter= 10 NonCon=     1 RMS=7.18D-08 Max=8.95D-07
 LinEq1:  Iter= 11 NonCon=     1 RMS=1.98D-08 Max=2.48D-07
 LinEq1:  Iter= 12 NonCon=     1 RMS=7.15D-09 Max=1.43D-07
 LinEq1:  Iter= 13 NonCon=     1 RMS=2.42D-09 Max=3.35D-08
 LinEq1:  Iter= 14 NonCon=     1 RMS=8.85D-10 Max=2.31D-08
 LinEq1:  Iter= 15 NonCon=     1 RMS=3.12D-10 Max=5.00D-09
 LinEq1:  Iter= 16 NonCon=     1 RMS=9.43D-11 Max=1.18D-09
 LinEq1:  Iter= 17 NonCon=     0 RMS=3.23D-11 Max=2.85D-10
 Linear equations converged to 1.000D-10 1.000D-09 after    17 iterations.
 End of Minotr Frequency-dependent properties file   721 does not exist.
 End of Minotr Frequency-dependent properties file   722 does not exist.
 Calling FoFJK, ICntrl=      2127 FMM=F ISym2X=0 I1Cent= 0 IOpClX= 0 NMat=1 NMatS=1 NMatT=0.
 ***** Axes restored to original set *****
 -------------------------------------------------------------------
 Center     Atomic                   Forces (Hartrees/Bohr)
 Number     Number              X              Y              Z
 -------------------------------------------------------------------
      1        6          -0.007491363   -0.003082620   -0.005428467
      2        6           0.003631348    0.001823324   -0.000048509
      3        6           0.001306560   -0.000825136    0.000632626
      4        6          -0.001268445    0.000471898   -0.000332792
      5        6           0.000800921    0.002197295    0.001472661
      6        7           0.001728090   -0.000118915    0.000350071
      7        1           0.000449391    0.000065723   -0.000052138
      8        1          -0.000351097   -0.000127836    0.000160272
      9        1           0.000039390    0.000071013   -0.000255035
     10        1          -0.000156174    0.000611805   -0.000160333
     11        8           0.003591910    0.001270235    0.003849969
     12        1          -0.002280532   -0.002356787   -0.000188326
 -------------------------------------------------------------------
 Cartesian Forces:  Max     0.007491363 RMS     0.002160860

 GradGradGradGradGradGradGradGradGradGradGradGradGradGradGradGradGradGrad
 Berny optimization.
 Using GEDIIS/GDIIS optimizer.
 Internal  Forces:  Max     0.005605169 RMS     0.001308403
 Search for a local minimum.
 Step number   2 out of a maximum of   61
 All quantities printed in internal units (Hartrees-Bohrs-Radians)
 Mixed Optimization -- RFO/linear search
 Update second derivatives using D2CorX and points    1    2
 DE= -2.89D-03 DEPred=-3.34D-03 R= 8.67D-01
 SS=  1.41D+00  RLast= 2.07D-01 DXNew= 5.0454D-01 6.2118D-01
 Trust test= 8.67D-01 RLast= 2.07D-01 DXMaxT set to 5.05D-01
 ITU=  1  0
 Use linear search instead of GDIIS.
     Eigenvalues ---    0.01285   0.02054   0.02056   0.02080   0.02097
     Eigenvalues ---    0.02116   0.02141   0.02227   0.02369   0.15935
     Eigenvalues ---    0.15999   0.16000   0.16000   0.17177   0.22050
     Eigenvalues ---    0.22431   0.24337   0.25065   0.33148   0.33644
     Eigenvalues ---    0.33842   0.33970   0.38492   0.41773   0.43966
     Eigenvalues ---    0.45305   0.46307   0.54193   0.54673   0.55514
 RFO step:  Lambda=-3.93990343D-04 EMin= 1.28479734D-02
 Quartic linear search produced a step of -0.10721.
 Iteration  1 RMS(Cart)=  0.01259025 RMS(Int)=  0.00033843
 Iteration  2 RMS(Cart)=  0.00030555 RMS(Int)=  0.00005468
 Iteration  3 RMS(Cart)=  0.00000021 RMS(Int)=  0.00005468
 Variable       Old X    -DE/DX   Delta X   Delta X   Delta X     New X
                                 (Linear)    (Quad)   (Total)
    R1        2.63710   0.00411   0.00231   0.00437   0.00668   2.64378
    R2        2.51630   0.00081   0.00317  -0.00399  -0.00081   2.51548
    R3        2.61761   0.00007   0.00908  -0.01531  -0.00623   2.61138
    R4        2.63697   0.00050   0.00013   0.00070   0.00083   2.63780
    R5        2.05046  -0.00006   0.00251  -0.00447  -0.00196   2.04850
    R6        2.63968   0.00121  -0.00018   0.00256   0.00237   2.64204
    R7        2.05204   0.00045   0.00271  -0.00345  -0.00074   2.05129
    R8        2.64057  -0.00036   0.00195  -0.00408  -0.00213   2.63843
    R9        2.05071   0.00008   0.00248  -0.00403  -0.00155   2.04916
   R10        2.54030   0.00230   0.00063   0.00266   0.00330   2.54360
   R11        2.05423   0.00059   0.00357  -0.00453  -0.00096   2.05327
   R12        1.81657   0.00081  -0.00026   0.00174   0.00148   1.81805
    A1        2.17415  -0.00284  -0.00203  -0.00551  -0.00760   2.16655
    A2        2.08270  -0.00020   0.00275  -0.00458  -0.00193   2.08076
    A3        2.02203   0.00315  -0.00025   0.01264   0.01231   2.03434
    A4        2.05839   0.00127   0.00110   0.00305   0.00416   2.06255
    A5        2.09711  -0.00102   0.00039  -0.00532  -0.00493   2.09218
    A6        2.12761  -0.00025  -0.00148   0.00230   0.00081   2.12842
    A7        2.07246  -0.00017   0.00007  -0.00135  -0.00129   2.07116
    A8        2.10015   0.00014   0.00050  -0.00001   0.00050   2.10065
    A9        2.11054   0.00004  -0.00057   0.00133   0.00077   2.11131
   A10        2.06276   0.00036   0.00060  -0.00011   0.00046   2.06322
   A11        2.12056  -0.00018  -0.00069   0.00073   0.00006   2.12061
   A12        2.09985  -0.00018   0.00009  -0.00060  -0.00050   2.09935
   A13        2.16157  -0.00031  -0.00066  -0.00032  -0.00101   2.16055
   A14        2.10419  -0.00008   0.00043  -0.00129  -0.00089   2.10330
   A15        2.01742   0.00039   0.00022   0.00166   0.00186   2.01928
   A16        2.03677   0.00169   0.00096   0.00449   0.00547   2.04224
   A17        1.85651   0.00561   0.00586   0.02078   0.02663   1.88314
    D1        0.02653  -0.00040  -0.00283  -0.00948  -0.01228   0.01425
    D2       -3.10232  -0.00058  -0.00422  -0.01235  -0.01650  -3.11882
    D3        3.06427   0.00110   0.00830   0.02191   0.03004   3.09432
    D4       -0.06457   0.00091   0.00691   0.01904   0.02582  -0.03875
    D5       -0.01958   0.00023   0.00210   0.00540   0.00752  -0.01206
    D6       -3.06058  -0.00105  -0.00868  -0.02412  -0.03304  -3.09362
    D7        1.51265   0.00017  -0.00760   0.03998   0.03232   1.54497
    D8       -1.72394   0.00120   0.00258   0.06773   0.07038  -1.65355
    D9       -0.01329   0.00012   0.00140   0.00135   0.00272  -0.01057
   D10        3.13784   0.00012   0.00051   0.00441   0.00492  -3.14043
   D11        3.11532   0.00030   0.00283   0.00421   0.00700   3.12231
   D12       -0.01674   0.00030   0.00193   0.00727   0.00919  -0.00754
   D13       -0.00406   0.00023   0.00044   0.00951   0.00998   0.00592
   D14       -3.13852   0.00012  -0.00032   0.00627   0.00597  -3.13254
   D15        3.12794   0.00023   0.00134   0.00643   0.00777   3.13571
   D16       -0.00652   0.00012   0.00058   0.00319   0.00376  -0.00276
   D17        0.01148  -0.00042  -0.00122  -0.01435  -0.01554  -0.00406
   D18       -3.13417   0.00000  -0.00081   0.00064  -0.00018  -3.13435
   D19       -3.13716  -0.00031  -0.00047  -0.01114  -0.01158   3.13445
   D20        0.00038   0.00010  -0.00006   0.00385   0.00378   0.00416
   D21       -0.00004   0.00022  -0.00001   0.00693   0.00686   0.00682
   D22       -3.13776  -0.00018  -0.00040  -0.00738  -0.00781   3.13761
         Item               Value     Threshold  Converged?
 Maximum Force            0.005605     0.000450     NO 
 RMS     Force            0.001308     0.000300     NO 
 Maximum Displacement     0.057486     0.001800     NO 
 RMS     Displacement     0.012456     0.001200     NO 
 Predicted change in Energy=-2.549891D-04
 GradGradGradGradGradGradGradGradGradGradGradGradGradGradGradGradGradGrad

                          Input orientation:                          
 ---------------------------------------------------------------------
 Center     Atomic      Atomic             Coordinates (Angstroms)
 Number     Number       Type             X           Y           Z
 ---------------------------------------------------------------------
      1          6           0       -6.311288   -1.175971    0.025510
      2          6           0       -4.912352   -1.184500    0.011625
      3          6           0       -4.245804    0.041919    0.005003
      4          6           0       -5.003329    1.217007   -0.000448
      5          6           0       -6.395018    1.105237    0.008295
      6          7           0       -7.051622   -0.069733    0.017153
      7          1           0       -3.160926    0.076650   -0.006858
      8          1           0       -4.378272   -2.127726   -0.001684
      9          1           0       -4.533289    2.194112   -0.014051
     10          1           0       -7.019885    1.994058   -0.002318
     11          8           0       -6.993716   -2.376544   -0.024711
     12          1           0       -7.110346   -2.688294    0.877948
 ---------------------------------------------------------------------
                    Distance matrix (angstroms):
                    1          2          3          4          5
     1  C    0.000000
     2  C    1.399030   0.000000
     3  C    2.397895   1.395863   0.000000
     4  C    2.727229   2.403260   1.398109   0.000000
     5  C    2.282808   2.727857   2.397870   1.396198   0.000000
     6  N    1.331137   2.412304   2.808066   2.418991   1.346017
     7  H    3.390411   2.158317   1.085498   2.166772   3.393754
     8  H    2.154791   1.084017   2.173695   3.402637   3.810434
     9  H    3.810551   3.399906   2.171392   1.084368   2.156892
    10  H    3.248379   3.813806   3.392112   2.161090   1.086542
    11  O    1.381885   2.398826   3.660720   4.108022   3.533034
    12  H    1.911091   2.800552   4.052370   4.523548   3.957129
                    6          7          8          9         10
     6  N    0.000000
     7  H    3.893523   0.000000
     8  H    3.373794   2.518180   0.000000
     9  H    3.386439   2.523306   4.324634   0.000000
    10  H    2.064127   4.309064   4.895632   2.494657   0.000000
    11  O    2.307917   4.550688   2.627354   5.190829   4.370738
    12  H    2.757042   4.901604   2.924417   5.592385   4.765236
                   11         12
    11  O    0.000000
    12  H    0.962073   0.000000
 Stoichiometry    C5H5NO
 Framework group  C1[X(C5H5NO)]
 Deg. of freedom    30
 Full point group                 C1      NOp   1
 Largest Abelian subgroup         C1      NOp   1
 Largest concise Abelian subgroup C1      NOp   1
                         Standard orientation:                         
 ---------------------------------------------------------------------
 Center     Atomic      Atomic             Coordinates (Angstroms)
 Number     Number       Type             X           Y           Z
 ---------------------------------------------------------------------
      1          6           0        0.899667   -0.019554   -0.013551
      2          6           0        0.223169    1.205042   -0.012415
      3          6           0       -1.172426    1.187036    0.008121
      4          6           0       -1.827276   -0.048217    0.013564
      5          6           0       -1.049491   -1.207678    0.005410
      6          7           0        0.296414   -1.206150   -0.011947
      7          1           0       -1.733136    2.116504    0.008582
      8          1           0        0.784614    2.132054   -0.035266
      9          1           0       -2.909513   -0.115773    0.020940
     10          1           0       -1.519580   -2.187260    0.002477
     11          8           0        2.279373   -0.027949   -0.090671
     12          1           0        2.625870    0.021336    0.805484
 ---------------------------------------------------------------------
 Rotational constants (GHZ):      5.8166189      2.7081009      1.8582506
 Standard basis: 6-311+G(d,p) (5D, 7F)
 There are   184 symmetry adapted basis functions of A   symmetry.
 Integral buffers will be    131072 words long.
 Raffenetti 1 integral format.
 Two-electron integral symmetry is turned on.
   184 basis functions,   292 primitive gaussians,   191 cartesian basis functions
    25 alpha electrons       25 beta electrons
       nuclear repulsion energy       274.0107488410 Hartrees.
 NAtoms=   12 NActive=   12 NUniq=   12 SFac= 1.00D+00 NAtFMM=   60 NAOKFM=F Big=F
 One-electron integrals computed using PRISM.
 NBasis=   184 RedAO= T  NBF=   184
 NBsUse=   184 1.00D-06 NBFU=   184
 Initial guess read from the read-write file.
 B after Tr=     0.000000    0.000000    0.000000
         Rot=    1.000000    0.000000    0.000000    0.000000 Ang=   0.00 deg.
 Initial guess orbital symmetries:
       Occupied  (A) (A) (A) (A) (A) (A) (A) (A) (A) (A) (A) (A)
                 (A) (A) (A) (A) (A) (A) (A) (A) (A) (A) (A) (A)
                 (A)
       Virtual   (A) (A) (A) (A) (A) (A) (A) (A) (A) (A) (A) (A)
                 (A) (A) (A) (A) (A) (A) (A) (A) (A) (A) (A) (A)
                 (A) (A) (A) (A) (A) (A) (A) (A) (A) (A) (A) (A)
                 (A) (A) (A) (A) (A) (A) (A) (A) (A) (A) (A) (A)
                 (A) (A) (A) (A) (A) (A) (A) (A) (A) (A) (A) (A)
                 (A) (A) (A) (A) (A) (A) (A) (A) (A) (A) (A) (A)
                 (A) (A) (A) (A) (A) (A) (A) (A) (A) (A) (A) (A)
                 (A) (A) (A) (A) (A) (A) (A) (A) (A) (A) (A) (A)
                 (A) (A) (A) (A) (A) (A) (A) (A) (A) (A) (A) (A)
                 (A) (A) (A) (A) (A) (A) (A) (A) (A) (A) (A) (A)
                 (A) (A) (A) (A) (A) (A) (A) (A) (A) (A) (A) (A)
                 (A) (A) (A) (A) (A) (A) (A) (A) (A) (A) (A) (A)
                 (A) (A) (A) (A) (A) (A) (A) (A) (A) (A) (A) (A)
                 (A) (A) (A)
 Harris functional with IExCor=  205 diagonalized for initial guess.
 ExpMin= 4.38D-02 ExpMax= 8.59D+03 ExpMxC= 1.30D+03 IAcc=2 IRadAn=         4 AccDes= 0.00D+00
 HarFok:  IExCor=  205 AccDes= 0.00D+00 IRadAn=         4 IDoV= 1
 ScaDFX=  1.000000  1.000000  1.000000  1.000000
 FoFCou: FMM=F IPFlag=           0 FMFlag=      100000 FMFlg1=           0
         NFxFlg=           0 DoJE=T BraDBF=F KetDBF=T FulRan=T
         Omega=  0.000000  0.000000  1.000000  0.000000  0.000000 ICntrl=     500 IOpCl=  0
         NMat0=    1 NMatS0=    1 NMatT0=    0 NMatD0=    1 NMtDS0=    0 NMtDT0=    0
         I1Cent=           4 NGrid=           0.
 Petite list used in FoFCou.
 Requested convergence on RMS density matrix=1.00D-08 within 128 cycles.
 Requested convergence on MAX density matrix=1.00D-06.
 Requested convergence on             energy=1.00D-06.
 No special actions if energy rises.
 Initial convergence to 1.0D-05 achieved.  Increase integral accuracy.
 SCF Done:  E(RHF) =  -321.635702319     A.U. after   12 cycles
             Convg  =    0.7177D-08             -V/T =  2.0016
 ExpMin= 4.38D-02 ExpMax= 8.59D+03 ExpMxC= 1.30D+03 IAcc=3 IRadAn=         5 AccDes= 0.00D+00
 HarFok:  IExCor=  205 AccDes= 0.00D+00 IRadAn=         5 IDoV=-2
 ScaDFX=  1.000000  1.000000  1.000000  1.000000
 Range of M.O.s used for correlation:     8   184
 NBasis=   184 NAE=    25 NBE=    25 NFC=     7 NFV=     0
 NROrb=    177 NOA=    18 NOB=    18 NVA=   159 NVB=   159

 **** Warning!!: The largest alpha MO coefficient is  0.95837614D+02

 Disk-based method using ON**2 memory for 18 occupieds at a time.
 Estimated scratch disk usage=   266002928 words.
 Actual    scratch disk usage=   217973744 words.
 JobTyp=1 Pass  1:  I=   8 to  25 NPSUse=  4 ParTrn=T ParDer=T DoDerP=T.
 Spin components of T(2) and E(2):
     alpha-alpha T2 =       0.5010623014D-01 E2=     -0.1421640705D+00
     alpha-beta  T2 =       0.2568759446D+00 E2=     -0.7716897519D+00
     beta-beta   T2 =       0.5010623014D-01 E2=     -0.1421640705D+00
 ANorm=    0.1164941374D+01
 E2 =    -0.1056017893D+01 EUMP2 =    -0.32269172021160D+03
          IDoAtm=111111111111
          Differentiating once with respect to electric field.
                with respect to dipole field.
          Differentiating once with respect to nuclear coordinates.
          There are     1 degrees of freedom in the 1st order CPHF.  IDoFFX=0.
 LinEq1:  Iter=  0 NonCon=     1 RMS=4.11D-03 Max=5.63D-02
 AX will form     1 AO Fock derivatives at one time.
 LinEq1:  Iter=  1 NonCon=     1 RMS=1.01D-03 Max=1.61D-02
 LinEq1:  Iter=  2 NonCon=     1 RMS=4.48D-04 Max=1.06D-02
 LinEq1:  Iter=  3 NonCon=     1 RMS=1.57D-04 Max=2.52D-03
 LinEq1:  Iter=  4 NonCon=     1 RMS=7.35D-05 Max=1.92D-03
 LinEq1:  Iter=  5 NonCon=     1 RMS=2.21D-05 Max=2.22D-04
 LinEq1:  Iter=  6 NonCon=     1 RMS=7.71D-06 Max=1.31D-04
 LinEq1:  Iter=  7 NonCon=     1 RMS=2.63D-06 Max=2.87D-05
 LinEq1:  Iter=  8 NonCon=     1 RMS=6.45D-07 Max=8.63D-06
 LinEq1:  Iter=  9 NonCon=     1 RMS=2.10D-07 Max=3.14D-06
 LinEq1:  Iter= 10 NonCon=     1 RMS=7.30D-08 Max=1.42D-06
 LinEq1:  Iter= 11 NonCon=     1 RMS=2.04D-08 Max=4.23D-07
 LinEq1:  Iter= 12 NonCon=     1 RMS=9.01D-09 Max=2.90D-07
 LinEq1:  Iter= 13 NonCon=     1 RMS=3.29D-09 Max=5.89D-08
 LinEq1:  Iter= 14 NonCon=     1 RMS=1.15D-09 Max=1.94D-08
 LinEq1:  Iter= 15 NonCon=     1 RMS=3.61D-10 Max=2.96D-09
 LinEq1:  Iter= 16 NonCon=     1 RMS=9.66D-11 Max=1.25D-09
 LinEq1:  Iter= 17 NonCon=     0 RMS=3.24D-11 Max=3.60D-10
 Linear equations converged to 1.000D-10 1.000D-09 after    17 iterations.
 End of Minotr Frequency-dependent properties file   721 does not exist.
 End of Minotr Frequency-dependent properties file   722 does not exist.
 Calling FoFJK, ICntrl=      2127 FMM=F ISym2X=0 I1Cent= 0 IOpClX= 0 NMat=1 NMatS=1 NMatT=0.
 ***** Axes restored to original set *****
 -------------------------------------------------------------------
 Center     Atomic                   Forces (Hartrees/Bohr)
 Number     Number              X              Y              Z
 -------------------------------------------------------------------
      1        6          -0.002617682   -0.001028054    0.000698168
      2        6           0.001495397    0.001897174   -0.000867488
      3        6          -0.000323399   -0.000935131   -0.000156415
      4        6          -0.000441533   -0.000611811    0.000042686
      5        6           0.000362295    0.000014668   -0.000575590
      6        7           0.000190142    0.000287252    0.000575508
      7        1           0.000677557    0.000045213    0.000020633
      8        1           0.000263219   -0.000704334    0.000066099
      9        1           0.000356096    0.000592183    0.000115615
     10        1          -0.000605041    0.000634672    0.000184343
     11        8           0.002166174   -0.000762733    0.000549837
     12        1          -0.001523224    0.000570901   -0.000653399
 -------------------------------------------------------------------
 Cartesian Forces:  Max     0.002617682 RMS     0.000888919

 GradGradGradGradGradGradGradGradGradGradGradGradGradGradGradGradGradGrad
 Berny optimization.
 Using GEDIIS/GDIIS optimizer.
 Internal  Forces:  Max     0.001693988 RMS     0.000503349
 Search for a local minimum.
 Step number   3 out of a maximum of   61
 All quantities printed in internal units (Hartrees-Bohrs-Radians)
 Mixed Optimization -- En-DIIS/RFO-DIIS
 Update second derivatives using D2CorX and points    1    2    3
 DE= -3.20D-04 DEPred=-2.55D-04 R= 1.25D+00
 SS=  1.41D+00  RLast= 1.06D-01 DXNew= 8.4853D-01 3.1650D-01
 Trust test= 1.25D+00 RLast= 1.06D-01 DXMaxT set to 5.05D-01
 ITU=  1  1  0
 Use linear search instead of GDIIS.
     Eigenvalues ---    0.00570   0.02054   0.02057   0.02086   0.02099
     Eigenvalues ---    0.02113   0.02141   0.02297   0.03366   0.15891
     Eigenvalues ---    0.15999   0.16000   0.16014   0.17908   0.21890
     Eigenvalues ---    0.22410   0.24224   0.25058   0.33277   0.33805
     Eigenvalues ---    0.33968   0.34612   0.38187   0.41735   0.44236
     Eigenvalues ---    0.44660   0.45791   0.54019   0.54594   0.56303
 RFO step:  Lambda=-6.09921270D-04 EMin= 5.70240523D-03
 Quartic linear search produced a step of  0.44528.
 Iteration  1 RMS(Cart)=  0.03912585 RMS(Int)=  0.00573893
 Iteration  2 RMS(Cart)=  0.00511168 RMS(Int)=  0.00010395
 Iteration  3 RMS(Cart)=  0.00007779 RMS(Int)=  0.00006804
 Iteration  4 RMS(Cart)=  0.00000001 RMS(Int)=  0.00006804
 Variable       Old X    -DE/DX   Delta X   Delta X   Delta X     New X
                                 (Linear)    (Quad)   (Total)
    R1        2.64378   0.00169   0.00298   0.01003   0.01304   2.65682
    R2        2.51548   0.00042  -0.00036  -0.00204  -0.00237   2.51311
    R3        2.61138  -0.00015  -0.00277  -0.01362  -0.01640   2.59499
    R4        2.63780  -0.00063   0.00037  -0.00136  -0.00099   2.63680
    R5        2.04850   0.00074  -0.00087  -0.00068  -0.00156   2.04694
    R6        2.64204   0.00041   0.00105   0.00346   0.00449   2.64653
    R7        2.05129   0.00068  -0.00033   0.00004  -0.00029   2.05100
    R8        2.63843   0.00032  -0.00095  -0.00262  -0.00360   2.63483
    R9        2.04916   0.00069  -0.00069  -0.00052  -0.00121   2.04795
   R10        2.54360   0.00041   0.00147   0.00370   0.00518   2.54878
   R11        2.05327   0.00087  -0.00043   0.00001  -0.00042   2.05285
   R12        1.81805  -0.00061   0.00066  -0.00001   0.00065   1.81870
    A1        2.16655  -0.00066  -0.00338  -0.00950  -0.01297   2.15358
    A2        2.08076  -0.00009  -0.00086  -0.00553  -0.00658   2.07418
    A3        2.03434   0.00074   0.00548   0.01504   0.02035   2.05469
    A4        2.06255   0.00040   0.00185   0.00575   0.00763   2.07019
    A5        2.09218  -0.00032  -0.00220  -0.00740  -0.00962   2.08256
    A6        2.12842  -0.00008   0.00036   0.00168   0.00202   2.13044
    A7        2.07116  -0.00012  -0.00058  -0.00253  -0.00313   2.06804
    A8        2.10065   0.00009   0.00022   0.00092   0.00116   2.10181
    A9        2.11131   0.00004   0.00034   0.00161   0.00196   2.11327
   A10        2.06322   0.00028   0.00021   0.00121   0.00136   2.06458
   A11        2.12061  -0.00020   0.00003  -0.00061  -0.00057   2.12005
   A12        2.09935  -0.00007  -0.00022  -0.00059  -0.00080   2.09855
   A13        2.16055  -0.00013  -0.00045  -0.00134  -0.00182   2.15873
   A14        2.10330   0.00020  -0.00039   0.00053   0.00012   2.10342
   A15        2.01928  -0.00007   0.00083   0.00082   0.00163   2.02092
   A16        2.04224   0.00024   0.00244   0.00637   0.00887   2.05112
   A17        1.88314   0.00090   0.01186   0.02808   0.03994   1.92308
    D1        0.01425   0.00011  -0.00547   0.00068  -0.00474   0.00951
    D2       -3.11882   0.00008  -0.00735  -0.00407  -0.01131  -3.13013
    D3        3.09432  -0.00023   0.01338   0.00141   0.01460   3.10892
    D4       -0.03875  -0.00026   0.01150  -0.00334   0.00803  -0.03072
    D5       -0.01206  -0.00007   0.00335  -0.00172   0.00161  -0.01045
    D6       -3.09362   0.00028  -0.01471  -0.00179  -0.01667  -3.11029
    D7        1.54497   0.00154   0.01439   0.19457   0.20880   1.75377
    D8       -1.65355   0.00117   0.03134   0.19445   0.22594  -1.42761
    D9       -0.01057  -0.00003   0.00121  -0.00154  -0.00034  -0.01091
   D10       -3.14043  -0.00008   0.00219  -0.00171   0.00049  -3.13994
   D11        3.12231   0.00000   0.00311   0.00327   0.00636   3.12867
   D12       -0.00754  -0.00005   0.00409   0.00309   0.00719  -0.00036
   D13        0.00592  -0.00008   0.00444   0.00334   0.00782   0.01375
   D14       -3.13254  -0.00010   0.00266  -0.00082   0.00187  -3.13068
   D15        3.13571  -0.00003   0.00346   0.00351   0.00698  -3.14050
   D16       -0.00276  -0.00005   0.00167  -0.00065   0.00103  -0.00173
   D17       -0.00406   0.00012  -0.00692  -0.00467  -0.01156  -0.01562
   D18       -3.13435  -0.00010  -0.00008  -0.00545  -0.00555  -3.13990
   D19        3.13445   0.00014  -0.00515  -0.00056  -0.00568   3.12877
   D20        0.00416  -0.00008   0.00168  -0.00134   0.00033   0.00449
   D21        0.00682  -0.00004   0.00306   0.00384   0.00684   0.01367
   D22        3.13761   0.00017  -0.00348   0.00459   0.00108   3.13869
         Item               Value     Threshold  Converged?
 Maximum Force            0.001694     0.000450     NO 
 RMS     Force            0.000503     0.000300     NO 
 Maximum Displacement     0.243996     0.001800     NO 
 RMS     Displacement     0.042330     0.001200     NO 
 Predicted change in Energy=-3.552558D-04
 GradGradGradGradGradGradGradGradGradGradGradGradGradGradGradGradGradGrad

                          Input orientation:                          
 ---------------------------------------------------------------------
 Center     Atomic      Atomic             Coordinates (Angstroms)
 Number     Number       Type             X           Y           Z
 ---------------------------------------------------------------------
      1          6           0       -6.296685   -1.193008    0.022150
      2          6           0       -4.890932   -1.180820    0.003426
      3          6           0       -4.233389    0.049855   -0.002990
      4          6           0       -5.004221    1.219117   -0.003901
      5          6           0       -6.392818    1.095235    0.018532
      6          7           0       -7.038228   -0.089063    0.023588
      7          1           0       -3.149045    0.093576   -0.018916
      8          1           0       -4.352407   -2.120597   -0.007398
      9          1           0       -4.543986    2.200152   -0.018867
     10          1           0       -7.025513    1.978290    0.017027
     11          8           0       -6.949161   -2.400855   -0.010759
     12          1           0       -7.239464   -2.645665    0.873569
 ---------------------------------------------------------------------
                    Distance matrix (angstroms):
                    1          2          3          4          5
     1  C    0.000000
     2  C    1.405930   0.000000
     3  C    2.408844   1.395337   0.000000
     4  C    2.736693   2.402621   1.400484   0.000000
     5  C    2.290265   2.726961   2.399253   1.394292   0.000000
     6  N    1.329881   2.408987   2.808403   2.418528   1.348756
     7  H    3.400679   2.158415   1.085342   2.169964   3.395112
     8  H    2.154417   1.083194   2.173718   3.402729   3.808612
     9  H    3.819316   3.398799   2.172670   1.083729   2.154163
    10  H    3.253975   3.812689   3.393408   2.159260   1.086320
    11  O    1.373209   2.392696   3.658068   4.109384   3.540201
    12  H    1.929756   2.901469   4.131667   4.550034   3.929661
                    6          7          8          9         10
     6  N    0.000000
     7  H    3.893701   0.000000
     8  H    3.367748   2.520074   0.000000
     9  H    3.385787   2.526563   4.325009   0.000000
    10  H    2.067403   4.310504   4.893565   2.491684   0.000000
    11  O    2.313762   4.545672   2.611837   5.191743   4.379899
    12  H    2.701699   5.003149   3.063805   5.616403   4.707484
                   11         12
    11  O    0.000000
    12  H    0.962415   0.000000
 Stoichiometry    C5H5NO
 Framework group  C1[X(C5H5NO)]
 Deg. of freedom    30
 Full point group                 C1      NOp   1
 Largest Abelian subgroup         C1      NOp   1
 Largest concise Abelian subgroup C1      NOp   1
                         Standard orientation:                         
 ---------------------------------------------------------------------
 Center     Atomic      Atomic             Coordinates (Angstroms)
 Number     Number       Type             X           Y           Z
 ---------------------------------------------------------------------
      1          6           0        0.907282   -0.017314   -0.021100
      2          6           0        0.215210    1.206440   -0.011026
      3          6           0       -1.179752    1.185034    0.013230
      4          6           0       -1.828926   -0.055905    0.013045
      5          6           0       -1.047401   -1.210553    0.005461
      6          7           0        0.301094   -1.201002   -0.019257
      7          1           0       -1.743636    2.112372    0.020000
      8          1           0        0.775967    2.133095   -0.024080
      9          1           0       -2.910172   -0.128770    0.021231
     10          1           0       -1.513206   -2.191937    0.003475
     11          8           0        2.278954   -0.002110   -0.084244
     12          1           0        2.653274   -0.147067    0.790465
 ---------------------------------------------------------------------
 Rotational constants (GHZ):      5.8228651      2.7013797      1.8552424
 Standard basis: 6-311+G(d,p) (5D, 7F)
 There are   184 symmetry adapted basis functions of A   symmetry.
 Integral buffers will be    131072 words long.
 Raffenetti 1 integral format.
 Two-electron integral symmetry is turned on.
   184 basis functions,   292 primitive gaussians,   191 cartesian basis functions
    25 alpha electrons       25 beta electrons
       nuclear repulsion energy       273.9059987937 Hartrees.
 NAtoms=   12 NActive=   12 NUniq=   12 SFac= 1.00D+00 NAtFMM=   60 NAOKFM=F Big=F
 One-electron integrals computed using PRISM.
 NBasis=   184 RedAO= T  NBF=   184
 NBsUse=   184 1.00D-06 NBFU=   184
 Initial guess read from the read-write file.
 B after Tr=     0.000000    0.000000    0.000000
         Rot=    1.000000    0.000000    0.000000    0.000000 Ang=   0.00 deg.
 Initial guess orbital symmetries:
       Occupied  (A) (A) (A) (A) (A) (A) (A) (A) (A) (A) (A) (A)
                 (A) (A) (A) (A) (A) (A) (A) (A) (A) (A) (A) (A)
                 (A)
       Virtual   (A) (A) (A) (A) (A) (A) (A) (A) (A) (A) (A) (A)
                 (A) (A) (A) (A) (A) (A) (A) (A) (A) (A) (A) (A)
                 (A) (A) (A) (A) (A) (A) (A) (A) (A) (A) (A) (A)
                 (A) (A) (A) (A) (A) (A) (A) (A) (A) (A) (A) (A)
                 (A) (A) (A) (A) (A) (A) (A) (A) (A) (A) (A) (A)
                 (A) (A) (A) (A) (A) (A) (A) (A) (A) (A) (A) (A)
                 (A) (A) (A) (A) (A) (A) (A) (A) (A) (A) (A) (A)
                 (A) (A) (A) (A) (A) (A) (A) (A) (A) (A) (A) (A)
                 (A) (A) (A) (A) (A) (A) (A) (A) (A) (A) (A) (A)
                 (A) (A) (A) (A) (A) (A) (A) (A) (A) (A) (A) (A)
                 (A) (A) (A) (A) (A) (A) (A) (A) (A) (A) (A) (A)
                 (A) (A) (A) (A) (A) (A) (A) (A) (A) (A) (A) (A)
                 (A) (A) (A) (A) (A) (A) (A) (A) (A) (A) (A) (A)
                 (A) (A) (A)
 Harris functional with IExCor=  205 diagonalized for initial guess.
 ExpMin= 4.38D-02 ExpMax= 8.59D+03 ExpMxC= 1.30D+03 IAcc=2 IRadAn=         4 AccDes= 0.00D+00
 HarFok:  IExCor=  205 AccDes= 0.00D+00 IRadAn=         4 IDoV= 1
 ScaDFX=  1.000000  1.000000  1.000000  1.000000
 FoFCou: FMM=F IPFlag=           0 FMFlag=      100000 FMFlg1=           0
         NFxFlg=           0 DoJE=T BraDBF=F KetDBF=T FulRan=T
         Omega=  0.000000  0.000000  1.000000  0.000000  0.000000 ICntrl=     500 IOpCl=  0
         NMat0=    1 NMatS0=    1 NMatT0=    0 NMatD0=    1 NMtDS0=    0 NMtDT0=    0
         I1Cent=           4 NGrid=           0.
 Petite list used in FoFCou.
 Requested convergence on RMS density matrix=1.00D-08 within 128 cycles.
 Requested convergence on MAX density matrix=1.00D-06.
 Requested convergence on             energy=1.00D-06.
 No special actions if energy rises.
 Initial convergence to 1.0D-05 achieved.  Increase integral accuracy.
 SCF Done:  E(RHF) =  -321.636881576     A.U. after   13 cycles
             Convg  =    0.6727D-08             -V/T =  2.0016
 ExpMin= 4.38D-02 ExpMax= 8.59D+03 ExpMxC= 1.30D+03 IAcc=3 IRadAn=         5 AccDes= 0.00D+00
 HarFok:  IExCor=  205 AccDes= 0.00D+00 IRadAn=         5 IDoV=-2
 ScaDFX=  1.000000  1.000000  1.000000  1.000000
 Range of M.O.s used for correlation:     8   184
 NBasis=   184 NAE=    25 NBE=    25 NFC=     7 NFV=     0
 NROrb=    177 NOA=    18 NOB=    18 NVA=   159 NVB=   159

 **** Warning!!: The largest alpha MO coefficient is  0.93263141D+02

 Disk-based method using ON**2 memory for 18 occupieds at a time.
 Estimated scratch disk usage=   265826368 words.
 Actual    scratch disk usage=   217829440 words.
 JobTyp=1 Pass  1:  I=   8 to  25 NPSUse=  4 ParTrn=T ParDer=T DoDerP=T.
 Spin components of T(2) and E(2):
     alpha-alpha T2 =       0.5010549170D-01 E2=     -0.1421425633D+00
     alpha-beta  T2 =       0.2568345671D+00 E2=     -0.7714842954D+00
     beta-beta   T2 =       0.5010549170D-01 E2=     -0.1421425633D+00
 ANorm=    0.1164922981D+01
 E2 =    -0.1055769422D+01 EUMP2 =    -0.32269265099834D+03
          IDoAtm=111111111111
          Differentiating once with respect to electric field.
                with respect to dipole field.
          Differentiating once with respect to nuclear coordinates.
          There are     1 degrees of freedom in the 1st order CPHF.  IDoFFX=0.
 LinEq1:  Iter=  0 NonCon=     1 RMS=4.12D-03 Max=5.90D-02
 AX will form     1 AO Fock derivatives at one time.
 LinEq1:  Iter=  1 NonCon=     1 RMS=1.00D-03 Max=1.62D-02
 LinEq1:  Iter=  2 NonCon=     1 RMS=4.44D-04 Max=1.08D-02
 LinEq1:  Iter=  3 NonCon=     1 RMS=1.54D-04 Max=2.43D-03
 LinEq1:  Iter=  4 NonCon=     1 RMS=7.17D-05 Max=1.94D-03
 LinEq1:  Iter=  5 NonCon=     1 RMS=2.18D-05 Max=2.13D-04
 LinEq1:  Iter=  6 NonCon=     1 RMS=7.61D-06 Max=1.33D-04
 LinEq1:  Iter=  7 NonCon=     1 RMS=2.63D-06 Max=2.66D-05
 LinEq1:  Iter=  8 NonCon=     1 RMS=6.52D-07 Max=8.59D-06
 LinEq1:  Iter=  9 NonCon=     1 RMS=2.08D-07 Max=3.60D-06
 LinEq1:  Iter= 10 NonCon=     1 RMS=7.93D-08 Max=2.14D-06
 LinEq1:  Iter= 11 NonCon=     1 RMS=2.28D-08 Max=5.38D-07
 LinEq1:  Iter= 12 NonCon=     1 RMS=9.81D-09 Max=3.02D-07
 LinEq1:  Iter= 13 NonCon=     1 RMS=3.47D-09 Max=5.04D-08
 LinEq1:  Iter= 14 NonCon=     1 RMS=1.12D-09 Max=1.53D-08
 LinEq1:  Iter= 15 NonCon=     1 RMS=3.73D-10 Max=3.50D-09
 LinEq1:  Iter= 16 NonCon=     1 RMS=1.03D-10 Max=1.24D-09
 LinEq1:  Iter= 17 NonCon=     0 RMS=3.81D-11 Max=6.68D-10
 Linear equations converged to 1.000D-10 1.000D-09 after    17 iterations.
 End of Minotr Frequency-dependent properties file   721 does not exist.
 End of Minotr Frequency-dependent properties file   722 does not exist.
 Calling FoFJK, ICntrl=      2127 FMM=F ISym2X=0 I1Cent= 0 IOpClX= 0 NMat=1 NMatS=1 NMatT=0.
 ***** Axes restored to original set *****
 -------------------------------------------------------------------
 Center     Atomic                   Forces (Hartrees/Bohr)
 Number     Number              X              Y              Z
 -------------------------------------------------------------------
      1        6           0.005979073    0.004513273    0.004578059
      2        6          -0.002537913    0.000066678   -0.001792375
      3        6          -0.002782414   -0.000425009   -0.000972590
      4        6           0.001263934   -0.001662450    0.000287570
      5        6          -0.000600843   -0.002890683   -0.001219719
      6        7          -0.002524899    0.001784622    0.001787665
      7        1           0.000679903    0.000045342    0.000075008
[...]
 ---------------------------------------------------------------------
 Center     Atomic      Atomic             Coordinates (Angstroms)
 Number     Number       Type             X           Y           Z
 ---------------------------------------------------------------------
      1          6           0       -6.191393   -1.250942    0.168296
      2          6           0       -4.795145   -1.196247    0.040468
      3          6           0       -4.206833    0.059827   -0.062584
      4          6           0       -5.021135    1.201285   -0.034708
      5          6           0       -6.396668    1.025831    0.096792
      6          7           0       -6.985015   -0.183225    0.197797
      7          1           0       -3.128832    0.149476   -0.163518
      8          1           0       -4.216850   -2.113623    0.025226
      9          1           0       -4.601134    2.198479   -0.112641
     10          1           0       -7.068998    1.879980    0.123561
     11          8           0       -6.778107   -2.470040    0.269054
     12          1           0       -7.725739   -2.294586    0.347720
 ---------------------------------------------------------------------
                    Distance matrix (angstroms):
                    1          2          3          4          5
     1  C    0.000000
     2  C    1.403154   0.000000
     3  C    2.389540   1.390846   0.000000
     4  C    2.724726   2.409333   1.402423   0.000000
     5  C    2.287126   2.739649   2.398737   1.392899   0.000000
     6  N    1.330687   2.417954   2.800923   2.414074   1.348395
     7  H    3.383866   2.151552   1.086421   2.168802   3.393303
     8  H    2.159516   1.084544   2.175246   3.411610   3.822682
     9  H    3.808721   3.403711   2.175273   1.084836   2.154740
    10  H    3.251901   3.826289   3.396998   2.163197   1.087343
    11  O    1.356682   2.367898   3.622383   4.081403   3.520836
    12  H    1.864297   3.144700   4.253741   4.436469   3.585327
                    6          7          8          9         10
     6  N    0.000000
     7  H    3.887336   0.000000
     8  H    3.379195   2.518138   0.000000
     9  H    3.384047   2.523624   4.331386   0.000000
    10  H    2.066247   4.312999   4.908491   2.499516   0.000000
    11  O    2.297262   4.512891   2.597407   5.165266   4.362162
    12  H    2.242543   5.231286   3.528322   5.492060   4.231851
                   11         12
    11  O    0.000000
    12  H    0.966943   0.000000
 Stoichiometry    C5H5NO
 Framework group  C1[X(C5H5NO)]
 Deg. of freedom    30
 Full point group                 C1      NOp   1
 Largest Abelian subgroup         C1      NOp   1
 Largest concise Abelian subgroup C1      NOp   1
                         Standard orientation:                         
 ---------------------------------------------------------------------
 Center     Atomic      Atomic             Coordinates (Angstroms)
 Number     Number       Type             X           Y           Z
 ---------------------------------------------------------------------
      1          6           0        0.903398    0.028743    0.000053
      2          6           0        0.187004    1.235233    0.000283
      3          6           0       -1.201768    1.159306    0.000013
      4          6           0       -1.818268   -0.100344   -0.000334
      5          6           0       -1.005282   -1.231370    0.000190
      6          7           0        0.342047   -1.177744    0.000272
      7          1           0       -1.796703    2.068351   -0.000172
      8          1           0        0.718943    2.180366    0.000856
      9          1           0       -2.898318   -0.202138   -0.000910
     10          1           0       -1.436443   -2.229576    0.000159
     11          8           0        2.258759    0.088600   -0.000360
     12          1           0        2.557620   -0.830999   -0.000191
 ---------------------------------------------------------------------
 Rotational constants (GHZ):      5.7989926      2.7553103      1.8678348
 Standard basis: 6-311+G(d,p) (5D, 7F)
 There are   184 symmetry adapted basis functions of A   symmetry.
 Integral buffers will be    131072 words long.
 Raffenetti 1 integral format.
 Two-electron integral symmetry is turned on.
   184 basis functions,   292 primitive gaussians,   191 cartesian basis functions
    25 alpha electrons       25 beta electrons
       nuclear repulsion energy       274.8994620244 Hartrees.
 NAtoms=   12 NActive=   12 NUniq=   12 SFac= 1.00D+00 NAtFMM=   60 NAOKFM=F Big=F
 One-electron integrals computed using PRISM.
 NBasis=   184 RedAO= T  NBF=   184
 NBsUse=   184 1.00D-06 NBFU=   184
 Initial guess read from the checkpoint file:  pyroh.chk
 B after Tr=     0.000000    0.000000    0.000000
         Rot=    1.000000    0.000000    0.000000    0.000000 Ang=   0.00 deg.
 Initial guess orbital symmetries:
       Occupied  (A) (A) (A) (A) (A) (A) (A) (A) (A) (A) (A) (A)
                 (A) (A) (A) (A) (A) (A) (A) (A) (A) (A) (A) (A)
                 (A)
       Virtual   (A) (A) (A) (A) (A) (A) (A) (A) (A) (A) (A) (A)
                 (A) (A) (A) (A) (A) (A) (A) (A) (A) (A) (A) (A)
                 (A) (A) (A) (A) (A) (A) (A) (A) (A) (A) (A) (A)
                 (A) (A) (A) (A) (A) (A) (A) (A) (A) (A) (A) (A)
                 (A) (A) (A) (A) (A) (A) (A) (A) (A) (A) (A) (A)
                 (A) (A) (A) (A) (A) (A) (A) (A) (A) (A) (A) (A)
                 (A) (A) (A) (A) (A) (A) (A) (A) (A) (A) (A) (A)
                 (A) (A) (A) (A) (A) (A) (A) (A) (A) (A) (A) (A)
                 (A) (A) (A) (A) (A) (A) (A) (A) (A) (A) (A) (A)
                 (A) (A) (A) (A) (A) (A) (A) (A) (A) (A) (A) (A)
                 (A) (A) (A) (A) (A) (A) (A) (A) (A) (A) (A) (A)
                 (A) (A) (A) (A) (A) (A) (A) (A) (A) (A) (A) (A)
                 (A) (A) (A) (A) (A) (A) (A) (A) (A) (A) (A) (A)
                 (A) (A) (A)
 Requested convergence on RMS density matrix=1.00D-08 within 128 cycles.
 Requested convergence on MAX density matrix=1.00D-06.
 Requested convergence on             energy=1.00D-06.
 No special actions if energy rises.
 SCF Done:  E(RHF) =  -321.649259797     A.U. after    1 cycles
             Convg  =    0.1797D-08             -V/T =  2.0016
 ExpMin= 4.38D-02 ExpMax= 8.59D+03 ExpMxC= 1.30D+03 IAcc=3 IRadAn=         5 AccDes= 0.00D+00
 HarFok:  IExCor=  205 AccDes= 0.00D+00 IRadAn=         5 IDoV=-2
 ScaDFX=  1.000000  1.000000  1.000000  1.000000
 Range of M.O.s used for correlation:     8   184
 NBasis=   184 NAE=    25 NBE=    25 NFC=     7 NFV=     0
 NROrb=    177 NOA=    18 NOB=    18 NVA=   159 NVB=   159

 **** Warning!!: The largest alpha MO coefficient is  0.97583877D+02

 Fully direct method using O(OVN) memory.
 JobTyp=1 Pass  1:  I=   1 to  18 NPSUse=  4 ParTrn=T ParDer=T DoDerP=F.
 Spin components of T(2) and E(2):
     alpha-alpha T2 =       0.4990053315D-01 E2=     -0.1422130198D+00
     alpha-beta  T2 =       0.2561707299D+00 E2=     -0.7716487999D+00
     beta-beta   T2 =       0.4990053315D-01 E2=     -0.1422130198D+00
 ANorm=    0.1164462020D+01
 E2 =    -0.1056074840D+01 EUMP2 =    -0.32270533463619D+03

 **********************************************************************

            Population analysis using the SCF density.

 **********************************************************************

 Orbital symmetries:
       Occupied  (A) (A) (A) (A) (A) (A) (A) (A) (A) (A) (A) (A)
                 (A) (A) (A) (A) (A) (A) (A) (A) (A) (A) (A) (A)
                 (A)
       Virtual   (A) (A) (A) (A) (A) (A) (A) (A) (A) (A) (A) (A)
                 (A) (A) (A) (A) (A) (A) (A) (A) (A) (A) (A) (A)
                 (A) (A) (A) (A) (A) (A) (A) (A) (A) (A) (A) (A)
                 (A) (A) (A) (A) (A) (A) (A) (A) (A) (A) (A) (A)
                 (A) (A) (A) (A) (A) (A) (A) (A) (A) (A) (A) (A)
                 (A) (A) (A) (A) (A) (A) (A) (A) (A) (A) (A) (A)
                 (A) (A) (A) (A) (A) (A) (A) (A) (A) (A) (A) (A)
                 (A) (A) (A) (A) (A) (A) (A) (A) (A) (A) (A) (A)
                 (A) (A) (A) (A) (A) (A) (A) (A) (A) (A) (A) (A)
                 (A) (A) (A) (A) (A) (A) (A) (A) (A) (A) (A) (A)
                 (A) (A) (A) (A) (A) (A) (A) (A) (A) (A) (A) (A)
                 (A) (A) (A) (A) (A) (A) (A) (A) (A) (A) (A) (A)
                 (A) (A) (A) (A) (A) (A) (A) (A) (A) (A) (A) (A)
                 (A) (A) (A)
 The electronic state is 1-A.
 Alpha  occ. eigenvalues --  -20.59663 -15.57029 -11.34862 -11.29014 -11.27170
 Alpha  occ. eigenvalues --  -11.24495 -11.24204  -1.42671  -1.25642  -1.09612
 Alpha  occ. eigenvalues --   -1.02945  -0.88141  -0.85565  -0.74918  -0.70927
 Alpha  occ. eigenvalues --   -0.66872  -0.62442  -0.61172  -0.59877  -0.57502
 Alpha  occ. eigenvalues --   -0.53707  -0.51069  -0.43759  -0.39193  -0.33307
 Alpha virt. eigenvalues --    0.06409   0.07595   0.08009   0.08755   0.09543
 Alpha virt. eigenvalues --    0.10219   0.11269   0.12088   0.13264   0.14240
 Alpha virt. eigenvalues --    0.14931   0.15202   0.15339   0.19183   0.20018
 Alpha virt. eigenvalues --    0.20387   0.20490   0.20860   0.21401   0.24731
 Alpha virt. eigenvalues --    0.26240   0.27200   0.27208   0.28952   0.30714
 Alpha virt. eigenvalues --    0.30925   0.32347   0.33321   0.33797   0.35153
 Alpha virt. eigenvalues --    0.36012   0.36710   0.38421   0.39077   0.42226
 Alpha virt. eigenvalues --    0.42870   0.46130   0.48618   0.49723   0.52772
 Alpha virt. eigenvalues --    0.55250   0.63655   0.67071   0.70230   0.70615
 Alpha virt. eigenvalues --    0.71249   0.73295   0.74303   0.76553   0.78226
 Alpha virt. eigenvalues --    0.78594   0.80589   0.82981   0.83211   0.87499
 Alpha virt. eigenvalues --    0.91263   0.92462   0.94461   0.95843   0.99077
 Alpha virt. eigenvalues --    1.00682   1.02516   1.05261   1.06924   1.07745
 Alpha virt. eigenvalues --    1.11471   1.13067   1.15272   1.18198   1.20631
 Alpha virt. eigenvalues --    1.25404   1.26370   1.30973   1.31140   1.32967
 Alpha virt. eigenvalues --    1.36918   1.38134   1.43438   1.48851   1.53133
 Alpha virt. eigenvalues --    1.60298   1.67203   1.68637   1.74803   1.77333
 Alpha virt. eigenvalues --    1.80840   1.81546   1.87326   1.88003   1.89627
 Alpha virt. eigenvalues --    1.92411   1.94096   1.99813   2.00744   2.05504
 Alpha virt. eigenvalues --    2.06906   2.08223   2.13372   2.19325   2.20061
 Alpha virt. eigenvalues --    2.23148   2.27877   2.30719   2.32591   2.37191
 Alpha virt. eigenvalues --    2.38725   2.40772   2.48472   2.65284   2.67607
 Alpha virt. eigenvalues --    2.71941   2.75070   2.77655   2.82856   2.89038
 Alpha virt. eigenvalues --    2.93115   2.94210   2.99563   3.02251   3.03484
 Alpha virt. eigenvalues --    3.05686   3.08292   3.10433   3.15168   3.20704
 Alpha virt. eigenvalues --    3.20892   3.26713   3.27113   3.34884   3.39754
 Alpha virt. eigenvalues --    3.49533   3.51266   3.56495   3.60910   3.75129
 Alpha virt. eigenvalues --    3.82019   3.85433   3.88544   3.93779   4.09347
 Alpha virt. eigenvalues --    4.21623   4.33262   4.40926   4.42172   4.44851
 Alpha virt. eigenvalues --    4.53648   4.84408   4.92289   5.54087   5.68374
 Alpha virt. eigenvalues --    6.01092   6.30948  24.81102  25.02684  25.11464
 Alpha virt. eigenvalues --   25.22439  25.28504  37.07970  51.62925
          Condensed to atoms (all electrons):
              1          2          3          4          5          6
     1  C    5.454041  -0.165247   0.292178  -0.255131   0.164275   0.217604
     2  C   -0.165247   5.821645   0.085136   0.169923  -0.392048   0.051675
     3  C    0.292178   0.085136   5.035956   0.329295   0.159237  -0.059995
     4  C   -0.255131   0.169923   0.329295   5.415713  -0.019875   0.099367
     5  C    0.164275  -0.392048   0.159237  -0.019875   5.620141   0.219625
     6  N    0.217604   0.051675  -0.059995   0.099367   0.219625   6.922329
     7  H   -0.004678  -0.026609   0.396009   0.013008  -0.009200   0.002128
     8  H   -0.007377   0.433211  -0.039218   0.005216  -0.011165   0.005875
     9  H   -0.003934   0.006862  -0.024130   0.427067  -0.036713   0.007528
    10  H    0.012134   0.000401  -0.000400  -0.036632   0.427887  -0.049249
    11  O    0.314473  -0.200412  -0.012423  -0.007153   0.025743  -0.128788
    12  H   -0.033258   0.040325  -0.012269   0.003294  -0.003333   0.015475
              7          8          9         10         11         12
     1  C   -0.004678  -0.007377  -0.003934   0.012134   0.314473  -0.033258
     2  C   -0.026609   0.433211   0.006862   0.000401  -0.200412   0.040325
     3  C    0.396009  -0.039218  -0.024130  -0.000400  -0.012423  -0.012269
     4  C    0.013008   0.005216   0.427067  -0.036632  -0.007153   0.003294
     5  C   -0.009200  -0.011165  -0.036713   0.427887   0.025743  -0.003333
     6  N    0.002128   0.005875   0.007528  -0.049249  -0.128788   0.015475
     7  H    0.484500  -0.003476  -0.003933  -0.000118  -0.000404   0.000004
     8  H   -0.003476   0.470827  -0.000117   0.000027  -0.003653   0.000137
     9  H   -0.003933  -0.000117   0.488787  -0.002708   0.000137   0.000002
    10  H   -0.000118   0.000027  -0.002708   0.505746   0.000373  -0.000110
    11  O   -0.000404  -0.003653   0.000137   0.000373   8.037661   0.299288
    12  H    0.000004   0.000137   0.000002  -0.000110   0.299288   0.400335
 Mulliken atomic charges:
              1
     1  C    0.014922
     2  C    0.175139
     3  C   -0.149375
     4  C   -0.144089
     5  C   -0.144575
     6  N   -0.303574
     7  H    0.152769
     8  H    0.149713
     9  H    0.141152
    10  H    0.142648
    11  O   -0.324842
    12  H    0.290112
 Sum of Mulliken atomic charges =   0.00000
 Mulliken charges with hydrogens summed into heavy atoms:
              1
     1  C    0.014922
     2  C    0.324852
     3  C    0.003395
     4  C   -0.002937
     5  C   -0.001927
     6  N   -0.303574
    11  O   -0.034731
 Sum of Mulliken charges with hydrogens summed into heavy atoms =   0.00000
 Electronic spatial extent (au):  <R**2>=            634.9712
 Charge=              0.0000 electrons
 Dipole moment (field-independent basis, Debye):
    X=             -1.6835    Y=              0.4537    Z=              0.0001  Tot=              1.7435
 Quadrupole moment (field-independent basis, Debye-Ang):
   XX=            -37.3269   YY=            -37.7622   ZZ=            -44.3389
   XY=             -2.2556   XZ=              0.0034   YZ=              0.0020
 Traceless Quadrupole moment (field-independent basis, Debye-Ang):
   XX=              2.4824   YY=              2.0472   ZZ=             -4.5296
   XY=             -2.2556   XZ=              0.0034   YZ=              0.0020
 Octapole moment (field-independent basis, Debye-Ang**2):
  XXX=              3.2316  YYY=              6.7132  ZZZ=             -0.0018  XYY=             -1.7574
  XXY=            -11.5150  XXZ=             -0.0047  XZZ=              6.1810  YZZ=             -1.3728
  YYZ=              0.0018  XYZ=              0.0037
 Hexadecapole moment (field-independent basis, Debye-Ang**3):
 XXXX=           -463.6223 YYYY=           -265.2250 ZZZZ=            -49.6892 XXXY=            -37.4869
 XXXZ=              0.0263 YYYX=              7.3671 YYYZ=              0.0092 ZZZX=             -0.0024
 ZZZY=              0.0001 XXYY=           -110.6809 XXZZ=           -100.5225 YYZZ=            -61.5539
 XXYZ=              0.0039 YYXZ=              0.0016 ZZXY=             -0.7368
 N-N= 2.748994620244D+02 E-N=-1.302523996780D+03  KE= 3.211417197333D+02
 Breneman (CHELPG) radii used.
 Generate Potential Derived Charges using the Breneman model, NDens= 1.
 Grid spacing= 0.300 Box extension= 2.800
 NStep X,Y,Z=   38     35     20   Total possible points=       26600
 Number of Points to Fit=    9304

 **********************************************************************

            Electrostatic Properties Using The SCF Density

 **********************************************************************

       Atomic Center    1 is at   0.903398  0.028743  0.000053
       Atomic Center    2 is at   0.187004  1.235233  0.000283
       Atomic Center    3 is at  -1.201768  1.159306  0.000013
       Atomic Center    4 is at  -1.818268 -0.100344 -0.000334
       Atomic Center    5 is at  -1.005282 -1.231370  0.000190
       Atomic Center    6 is at   0.342047 -1.177744  0.000272
       Atomic Center    7 is at  -1.796703  2.068351 -0.000172
       Atomic Center    8 is at   0.718943  2.180366  0.000856
       Atomic Center    9 is at  -2.898318 -0.202138 -0.000910
       Atomic Center   10 is at  -1.436443 -2.229576  0.000159
       Atomic Center   11 is at   2.258759  0.088600 -0.000360
       Atomic Center   12 is at   2.557620 -0.830999 -0.000191
    9304 points will be used for fitting atomic charges
 Fitting point charges to electrostatic potential
 Charges from ESP fit, RMS=   0.00405 RRMS=   0.30473:
 Charge=   0.00000 Dipole=    -1.7309     0.4737     0.0006 Tot=     1.7945
              1
     1  C    0.968272
     2  C   -0.595431
     3  C    0.262704
     4  C   -0.502640
     5  C    0.436884
     6  N   -0.802239
     7  H    0.075508
     8  H    0.214503
     9  H    0.160595
    10  H    0.053994
    11  O   -0.709825
    12  H    0.437675
 Charges from ESP fit with hydrogens summed into heavy atoms:
              1
     1  C    0.968272
     2  C   -0.380928
     3  C    0.338212
     4  C   -0.342045
     5  C    0.490878
     6  N   -0.802239
     7  H    0.000000
     8  H    0.000000
     9  H    0.000000
    10  H    0.000000
    11  O   -0.272150
    12  H    0.000000
 -----------------------------------------------------------------

              Electrostatic Properties (Atomic Units)

 -----------------------------------------------------------------
    Center     Electric         -------- Electric Field --------
               Potential          X             Y             Z
 -----------------------------------------------------------------
    1 Atom    -14.614432
    2 Atom    -14.718722
    3 Atom    -14.694463
    4 Atom    -14.721614
    5 Atom    -14.674667
    6 Atom    -18.354468
    7 Atom     -1.078184
    8 Atom     -1.086663
    9 Atom     -1.089755
   10 Atom     -1.090497
   11 Atom    -22.298035
   12 Atom     -0.970995
 -----------------------------------------------------------------
 1|1|UNPC-CR03410|SP|RMP2-FC|6-311+G(d,p)|C5H5N1O1|ST024659|11-Oct-2016
 |0||# MP2/6-311+G** Geom=Check Guess=Read Pop=CHelpG||PyOH||0,1|C,0,-6
 .191392919,-1.2509418282,0.1682962452|C,0,-4.7951446869,-1.1962470591,
 0.0404683973|C,0,-4.2068329713,0.0598273012,-0.0625835626|C,0,-5.02113
 45766,1.2012852144,-0.0347076818|C,0,-6.3966677066,1.0258309741,0.0967
 916256|N,0,-6.9850153074,-0.1832245438,0.197796823|H,0,-3.1288323399,0
 .149475535,-0.1635181956|H,0,-4.2168499623,-2.1136229406,0.025226063|H
 ,0,-4.6011344551,2.1984790751,-0.1126411111|H,0,-7.0689977687,1.879980
 0494,0.1235611788|O,0,-6.7781069666,-2.4700399178,0.2690535071|H,0,-7.
 7257390296,-2.2945863697,0.3477203511||Version=EM64W-G09RevC.01|State=
 1-A|HF=-321.6492598|MP2=-322.7053346|RMSD=1.797e-009|PG=C01 [X(C5H5N1O
 1)]||@


 We're simply so accustomed to the marvels of everyday thought
 that we never wonder about it.
 -- Marvin Minsky in "Why people think computers are smart"
 Job cpu time:  0 days  0 hours  0 minutes 18.0 seconds.
 File lengths (MBytes):  RWF=     20 Int=      0 D2E=      0 Chk=      4 Scr=      1
 Normal termination of Gaussian 09 at Tue Oct 11 15:30:59 2016.
