 Set GAUSS_PDEF to "6".
 Set GAUSS_MDEF to "24576MB".
 Set GAUSS_WDEF to "node-025:2".
 Set GAUSS_SDEF to "ssh".
 Entering Gaussian System, Link 0=g16
 Initial command:
 /usr/local/Gaussian/gaussian-16-A03-avx2/g16/l1.exe "/tmp/168287.bcm-head.cm.cluster/Gau-26266.inp" -scrdir="/tmp/168287.bcm-head.cm.cluster/"
 Default linda workers: node-025:2
 Default is to use   6 SMP processors on each worker.
 Entering Link 1 = /usr/local/Gaussian/gaussian-16-A03-avx2/g16/l1.exe PID=     26267.
  
 Copyright (c) 1988,1990,1992,1993,1995,1998,2003,2009,2016,
            Gaussian, Inc.  All Rights Reserved.
  
 This is part of the Gaussian(R) 16 program.  It is based on
 the Gaussian(R) 09 system (copyright 2009, Gaussian, Inc.),
 the Gaussian(R) 03 system (copyright 2003, Gaussian, Inc.),
 the Gaussian(R) 98 system (copyright 1998, Gaussian, Inc.),
 the Gaussian(R) 94 system (copyright 1995, Gaussian, Inc.),
 the Gaussian 92(TM) system (copyright 1992, Gaussian, Inc.),
 the Gaussian 90(TM) system (copyright 1990, Gaussian, Inc.),
 the Gaussian 88(TM) system (copyright 1988, Gaussian, Inc.),
 the Gaussian 86(TM) system (copyright 1986, Carnegie Mellon
 University), and the Gaussian 82(TM) system (copyright 1983,
 Carnegie Mellon University). Gaussian is a federally registered
 trademark of Gaussian, Inc.
  
 This software contains proprietary and confidential information,
 including trade secrets, belonging to Gaussian, Inc.
  
 This software is provided under written license and may be
 used, copied, transmitted, or stored only in accord with that
 written license.
  
 The following legend is applicable only to US Government
 contracts under FAR:
  
                    RESTRICTED RIGHTS LEGEND
  
 Use, reproduction and disclosure by the US Government is
 subject to restrictions as set forth in subparagraphs (a)
 and (c) of the Commercial Computer Software - Restricted
 Rights clause in FAR 52.227-19.
  
 Gaussian, Inc.
 340 Quinnipiac St., Bldg. 40, Wallingford CT 06492
  
  
 ---------------------------------------------------------------
 Warning -- This program may not be used in any manner that
 competes with the business of Gaussian, Inc. or will provide
 assistance to any competitor of Gaussian, Inc.  The licensee
 of this program is prohibited from giving any competitor of
 Gaussian, Inc. access to this program.  By using this program,
 the user acknowledges that Gaussian, Inc. is engaged in the
 business of creating and licensing software in the field of
 computational chemistry and represents and warrants to the
 licensee that it is not a competitor of Gaussian, Inc. and that
 it will not use this program in any manner prohibited above.
 ---------------------------------------------------------------
  

 Cite this work as:
 Gaussian 16, Revision A.03,
 M. J. Frisch, G. W. Trucks, H. B. Schlegel, G. E. Scuseria, 
 M. A. Robb, J. R. Cheeseman, G. Scalmani, V. Barone, 
 G. A. Petersson, H. Nakatsuji, X. Li, M. Caricato, A. V. Marenich, 
 J. Bloino, B. G. Janesko, R. Gomperts, B. Mennucci, H. P. Hratchian, 
 J. V. Ortiz, A. F. Izmaylov, J. L. Sonnenberg, D. Williams-Young, 
 F. Ding, F. Lipparini, F. Egidi, J. Goings, B. Peng, A. Petrone, 
 T. Henderson, D. Ranasinghe, V. G. Zakrzewski, J. Gao, N. Rega, 
 G. Zheng, W. Liang, M. Hada, M. Ehara, K. Toyota, R. Fukuda, 
 J. Hasegawa, M. Ishida, T. Nakajima, Y. Honda, O. Kitao, H. Nakai, 
 T. Vreven, K. Throssell, J. A. Montgomery, Jr., J. E. Peralta, 
 F. Ogliaro, M. J. Bearpark, J. J. Heyd, E. N. Brothers, K. N. Kudin, 
 V. N. Staroverov, T. A. Keith, R. Kobayashi, J. Normand, 
 K. Raghavachari, A. P. Rendell, J. C. Burant, S. S. Iyengar, 
 J. Tomasi, M. Cossi, J. M. Millam, M. Klene, C. Adamo, R. Cammi, 
 J. W. Ochterski, R. L. Martin, K. Morokuma, O. Farkas, 
 J. B. Foresman, and D. J. Fox, Gaussian, Inc., Wallingford CT, 2016.
 
 ******************************************
 Gaussian 16:  ES64L-G16RevA.03 25-Dec-2016
                30-Sep-2020 
 ******************************************
 %chk=C12E8
 SetLPE:  input flags="-env GAUSS_SCRDIR=/tmp/168287.bcm-head.cm.cluster "
 SetLPE:    new flags="-env GAUSS_SCRDIR=/tmp/168287.bcm-head.cm.cluster -opt 'Tsnet.Node.lindarsharg: ssh' -mp 2 -nodelist 'node-025.hpc.cc.spbu.ru' -opt 'Tsnet.node-025_hpc_cc_spbu_ru.speedfactor: 2' -env GAUSS_MDEF=3221225472 -env GAUSS_EXEDIR="/usr/local/Gaussian/gaussian-16-A03-avx2/g16/bsd:/usr/local/Gaussian/gaussian-16-A03-avx2/g16""
 Will use up to    2 processors via Linda.
 Default route: Maxdisk=213GB Cachesize=163840
 ----------------------------------
 #P CAM-B3LYP/6-311+G** Opt SCF=XQC
 ----------------------------------
 1/4=163840,18=20,19=15,26=3,38=1/1,3;
 2/4=163840,9=110,12=2,17=6,18=5,40=1/2;
 3/4=163840,5=4,6=6,7=111,11=2,25=1,30=1,71=1,74=-40/1,2,3;
 4/4=163840/1;
 5/4=163840,5=2,8=3,13=1,38=5/2,8;
 6/4=163840,7=2,8=2,9=2,10=2,28=1/1;
 7/4=163840/1,2,3,16;
 1/4=163840,18=20,19=15,26=3/3(2);
 2/4=163840,9=110/2;
 99/4=163840/99;
 2/4=163840,9=110/2;
 3/4=163840,5=4,6=6,7=111,11=2,25=1,30=1,71=1,74=-40/1,2,3;
 4/4=163840,5=5,16=3,69=1/1;
 5/4=163840,5=2,8=3,13=1,38=5/2,8;
 7/4=163840/1,2,3,16;
 1/4=163840,18=20,19=15,26=3/3(-5);
 2/4=163840,9=110/2;
 6/4=163840,7=2,8=2,9=2,10=2,19=2,28=1/1;
 99/4=163840,9=1/99;
 Leave Link    1 at Wed Sep 30 05:10:50 2020, MaxMem=           0 cpu:               0.3 elap:               0.1
 (Enter /usr/local/Gaussian/gaussian-16-A03-avx2/g16/l101.exe)
 ---------------------------
 C12E8 geometry optimization
 ---------------------------
 Symbolic Z-matrix:
 Charge =  0 Multiplicity = 1
 C                    -3.22176  -0.74895   0. 
 H                    -2.8651   -1.75776   0. 
 H                    -4.29176  -0.74894   0. 
 C                    -2.70842  -0.023     1.2574 
 H                    -1.63842  -0.0247    1.25838 
 H                    -3.06347   0.98638   1.25643 
 C                    -3.22405  -0.74733   2.51481 
 H                    -2.86931  -1.75681   2.5156 
 H                    -4.29405  -0.74529   2.51402 
 C                    -2.71027  -0.02168   3.77221 
 H                    -3.06495   0.98782   3.77138 
 H                    -1.64027  -0.02379   3.77304 
 C                    -3.22601  -0.74595   5.02962 
 H                    -2.87133  -1.75545   5.03044 
 H                    -4.296    -0.74383   5.02879 
 C                    -2.71221  -0.02031   6.28702 
 H                    -3.06688   0.9892    6.28619 
 H                    -1.64221  -0.02242   6.28785 
 C                    -3.22795  -0.74457   7.54442 
 H                    -2.87327  -1.75408   7.54525 
 H                    -4.29795  -0.74246   7.5436 
 C                    -2.71415  -0.01893   8.80183 
 H                    -3.06883   0.99057   8.801 
 H                    -1.64416  -0.02104   8.80266 
 C                    -3.22989  -0.74319   10.05923 
 H                    -2.87521  -1.7527    10.06006 
 H                    -4.29989  -0.74108   10.0584 
 C                    -2.7161   -0.01756   11.31664 
 H                    -3.07078   0.99195   11.31581 
 H                    -1.6461   -0.01966   11.31747 
 C                    -3.23183  -0.74182   12.57404 
 H                    -2.87715  -1.75132   12.57487 
 H                    -4.30183  -0.73971   12.57321 
 C                    -2.71804  -0.01618   13.83145 
 H                    -3.07272   0.99333   13.83062 
 H                    -3.07638  -0.5194    14.7051 
 H                    -1.64805  -0.01828   13.83227 
 O                    -2.74508  -0.07485  -1.16759 
 C                    -3.22043  -0.74917  -2.33559 
 H                    -4.29043  -0.75009  -2.33628 
 H                    -2.8629   -1.75768  -2.33553 
 C                    -2.70692  -0.02257  -3.59255 
 H                    -1.63692  -0.02165  -3.59187 
 H                    -3.06445   0.98593  -3.59261 
 O                    -3.18226  -0.69689  -4.76056 
 C                    -2.70565  -0.02275  -5.92815 
 H                    -1.63565  -0.02196  -5.92774 
 H                    -3.06306   0.9858   -5.92856 
 C                    -3.21796  -0.74943  -7.18555 
 H                    -4.28796  -0.75021  -7.18596 
 H                    -2.86056  -1.75797  -7.18514 
 O                    -2.74135  -0.07528  -8.35314 
 C                    -3.21669  -0.74961  -9.52115 
 H                    -4.28669  -0.75044  -9.52188 
 H                    -2.85925  -1.75814  -9.52103 
 C                    -2.70306  -0.02308  -10.7781 
 H                    -1.63306  -0.02226  -10.77737 
 H                    -3.06051   0.98545  -10.77822 
 O                    -3.17841  -0.69741  -11.94611 
 C                    -2.70181  -0.02325  -13.1137 
 H                    -1.63181  -0.02242  -13.11328 
 H                    -3.05926   0.98528  -13.11412 
 C                    -3.21409  -0.74996  -14.3711 
 H                    -4.28408  -0.75079  -14.37152 
 H                    -2.85664  -1.75849  -14.37068 
 O                    -2.73748  -0.07581  -15.53869 
 C                    -3.21282  -0.75014  -16.7067 
 H                    -4.28282  -0.75098  -16.70743 
 H                    -2.85536  -1.75866  -16.70658 
 C                    -2.69919  -0.02361  -17.96365 
 H                    -1.62919  -0.02277  -17.96292 
 H                    -3.05665   0.98492  -17.96377 
 O                    -3.17453  -0.69794  -19.13166 
 C                    -2.69792  -0.02379  -20.29925 
 H                    -1.62792  -0.02295  -20.29882 
 H                    -3.05538   0.98474  -20.29967 
 C                    -3.21019  -0.7505   -21.55665 
 H                    -4.28019  -0.75134  -21.55708 
 H                    -2.85274  -1.75903  -21.55623 
 O                    -2.73358  -0.07635  -22.72424 
 C                    -3.20892  -0.75069  -23.89225 
 H                    -4.27892  -0.75152  -23.89298 
 H                    -2.85147  -1.75921  -23.89213 
 C                    -2.69529  -0.02416  -25.14921 
 H                    -1.62529  -0.02333  -25.14847 
 H                    -3.05274   0.98437  -25.14932 
 O                    -3.17062  -0.69849  -26.31721 
 C                    -2.69401  -0.02434  -27.4848 
 H                    -1.62401  -0.02352  -27.48437 
 H                    -3.05146   0.98418  -27.48523 
 C                    -3.20628  -0.75106  -28.7422 
 H                    -4.27628  -0.75189  -28.74263 
 H                    -2.84884  -1.75959  -28.74178 
 O                    -2.72967  -0.07691  -29.90979 
 H                    -3.04878  -0.52961  -30.69391 
 
 ITRead=  0  0  0  0  0  0  0  0  0  0  0  0  0  0  0  0  0  0  0  0
 ITRead=  0  0  0  0  0  0  0  0  0  0  0  0  0  0  0  0  0  0  0  0
 ITRead=  0  0  0  0  0  0  0  0  0  0  0  0  0  0  0  0  0  0  0  0
 ITRead=  0  0  0  0  0  0  0  0  0  0  0  0  0  0  0  0  0  0  0  0
 ITRead=  0  0  0  0  0  0  0  0  0  0  0  0  0  0  0
 MicOpt= -1 -1 -1 -1 -1 -1 -1 -1 -1 -1 -1 -1 -1 -1 -1 -1 -1 -1 -1 -1
 MicOpt= -1 -1 -1 -1 -1 -1 -1 -1 -1 -1 -1 -1 -1 -1 -1 -1 -1 -1 -1 -1
 MicOpt= -1 -1 -1 -1 -1 -1 -1 -1 -1 -1 -1 -1 -1 -1 -1 -1 -1 -1 -1 -1
 MicOpt= -1 -1 -1 -1 -1 -1 -1 -1 -1 -1 -1 -1 -1 -1 -1 -1 -1 -1 -1 -1
 MicOpt= -1 -1 -1 -1 -1 -1 -1 -1 -1 -1 -1 -1 -1 -1 -1
 NAtoms=     95 NQM=       95 NQMF=       0 NMMI=      0 NMMIF=      0
                NMic=       0 NMicF=      0.
                    Isotopes and Nuclear Properties:
 (Nuclear quadrupole moments (NQMom) in fm**2, nuclear magnetic moments (NMagM)
  in nuclear magnetons)

  Atom         1           2           3           4           5           6           7           8           9          10
 IAtWgt=          12           1           1          12           1           1          12           1           1          12
 AtmWgt=  12.0000000   1.0078250   1.0078250  12.0000000   1.0078250   1.0078250  12.0000000   1.0078250   1.0078250  12.0000000
 NucSpn=           0           1           1           0           1           1           0           1           1           0
 AtZEff=  -0.0000000  -0.0000000  -0.0000000  -0.0000000  -0.0000000  -0.0000000  -0.0000000  -0.0000000  -0.0000000  -0.0000000
 NQMom=    0.0000000   0.0000000   0.0000000   0.0000000   0.0000000   0.0000000   0.0000000   0.0000000   0.0000000   0.0000000
 NMagM=    0.0000000   2.7928460   2.7928460   0.0000000   2.7928460   2.7928460   0.0000000   2.7928460   2.7928460   0.0000000
 AtZNuc=   6.0000000   1.0000000   1.0000000   6.0000000   1.0000000   1.0000000   6.0000000   1.0000000   1.0000000   6.0000000

  Atom        11          12          13          14          15          16          17          18          19          20
 IAtWgt=           1           1          12           1           1          12           1           1          12           1
 AtmWgt=   1.0078250   1.0078250  12.0000000   1.0078250   1.0078250  12.0000000   1.0078250   1.0078250  12.0000000   1.0078250
 NucSpn=           1           1           0           1           1           0           1           1           0           1
 AtZEff=  -0.0000000  -0.0000000  -0.0000000  -0.0000000  -0.0000000  -0.0000000  -0.0000000  -0.0000000  -0.0000000  -0.0000000
 NQMom=    0.0000000   0.0000000   0.0000000   0.0000000   0.0000000   0.0000000   0.0000000   0.0000000   0.0000000   0.0000000
 NMagM=    2.7928460   2.7928460   0.0000000   2.7928460   2.7928460   0.0000000   2.7928460   2.7928460   0.0000000   2.7928460
 AtZNuc=   1.0000000   1.0000000   6.0000000   1.0000000   1.0000000   6.0000000   1.0000000   1.0000000   6.0000000   1.0000000

  Atom        21          22          23          24          25          26          27          28          29          30
 IAtWgt=           1          12           1           1          12           1           1          12           1           1
 AtmWgt=   1.0078250  12.0000000   1.0078250   1.0078250  12.0000000   1.0078250   1.0078250  12.0000000   1.0078250   1.0078250
 NucSpn=           1           0           1           1           0           1           1           0           1           1
 AtZEff=  -0.0000000  -0.0000000  -0.0000000  -0.0000000  -0.0000000  -0.0000000  -0.0000000  -0.0000000  -0.0000000  -0.0000000
 NQMom=    0.0000000   0.0000000   0.0000000   0.0000000   0.0000000   0.0000000   0.0000000   0.0000000   0.0000000   0.0000000
 NMagM=    2.7928460   0.0000000   2.7928460   2.7928460   0.0000000   2.7928460   2.7928460   0.0000000   2.7928460   2.7928460
 AtZNuc=   1.0000000   6.0000000   1.0000000   1.0000000   6.0000000   1.0000000   1.0000000   6.0000000   1.0000000   1.0000000

  Atom        31          32          33          34          35          36          37          38          39          40
 IAtWgt=          12           1           1          12           1           1           1          16          12           1
 AtmWgt=  12.0000000   1.0078250   1.0078250  12.0000000   1.0078250   1.0078250   1.0078250  15.9949146  12.0000000   1.0078250
 NucSpn=           0           1           1           0           1           1           1           0           0           1
 AtZEff=  -0.0000000  -0.0000000  -0.0000000  -0.0000000  -0.0000000  -0.0000000  -0.0000000  -0.0000000  -0.0000000  -0.0000000
 NQMom=    0.0000000   0.0000000   0.0000000   0.0000000   0.0000000   0.0000000   0.0000000   0.0000000   0.0000000   0.0000000
 NMagM=    0.0000000   2.7928460   2.7928460   0.0000000   2.7928460   2.7928460   2.7928460   0.0000000   0.0000000   2.7928460
 AtZNuc=   6.0000000   1.0000000   1.0000000   6.0000000   1.0000000   1.0000000   1.0000000   8.0000000   6.0000000   1.0000000

  Atom        41          42          43          44          45          46          47          48          49          50
 IAtWgt=           1          12           1           1          16          12           1           1          12           1
 AtmWgt=   1.0078250  12.0000000   1.0078250   1.0078250  15.9949146  12.0000000   1.0078250   1.0078250  12.0000000   1.0078250
 NucSpn=           1           0           1           1           0           0           1           1           0           1
 AtZEff=  -0.0000000  -0.0000000  -0.0000000  -0.0000000  -0.0000000  -0.0000000  -0.0000000  -0.0000000  -0.0000000  -0.0000000
 NQMom=    0.0000000   0.0000000   0.0000000   0.0000000   0.0000000   0.0000000   0.0000000   0.0000000   0.0000000   0.0000000
 NMagM=    2.7928460   0.0000000   2.7928460   2.7928460   0.0000000   0.0000000   2.7928460   2.7928460   0.0000000   2.7928460
 AtZNuc=   1.0000000   6.0000000   1.0000000   1.0000000   8.0000000   6.0000000   1.0000000   1.0000000   6.0000000   1.0000000

  Atom        51          52          53          54          55          56          57          58          59          60
 IAtWgt=           1          16          12           1           1          12           1           1          16          12
 AtmWgt=   1.0078250  15.9949146  12.0000000   1.0078250   1.0078250  12.0000000   1.0078250   1.0078250  15.9949146  12.0000000
 NucSpn=           1           0           0           1           1           0           1           1           0           0
 AtZEff=  -0.0000000  -0.0000000  -0.0000000  -0.0000000  -0.0000000  -0.0000000  -0.0000000  -0.0000000  -0.0000000  -0.0000000
 NQMom=    0.0000000   0.0000000   0.0000000   0.0000000   0.0000000   0.0000000   0.0000000   0.0000000   0.0000000   0.0000000
 NMagM=    2.7928460   0.0000000   0.0000000   2.7928460   2.7928460   0.0000000   2.7928460   2.7928460   0.0000000   0.0000000
 AtZNuc=   1.0000000   8.0000000   6.0000000   1.0000000   1.0000000   6.0000000   1.0000000   1.0000000   8.0000000   6.0000000

  Atom        61          62          63          64          65          66          67          68          69          70
 IAtWgt=           1           1          12           1           1          16          12           1           1          12
 AtmWgt=   1.0078250   1.0078250  12.0000000   1.0078250   1.0078250  15.9949146  12.0000000   1.0078250   1.0078250  12.0000000
 NucSpn=           1           1           0           1           1           0           0           1           1           0
 AtZEff=  -0.0000000  -0.0000000  -0.0000000  -0.0000000  -0.0000000  -0.0000000  -0.0000000  -0.0000000  -0.0000000  -0.0000000
 NQMom=    0.0000000   0.0000000   0.0000000   0.0000000   0.0000000   0.0000000   0.0000000   0.0000000   0.0000000   0.0000000
 NMagM=    2.7928460   2.7928460   0.0000000   2.7928460   2.7928460   0.0000000   0.0000000   2.7928460   2.7928460   0.0000000
 AtZNuc=   1.0000000   1.0000000   6.0000000   1.0000000   1.0000000   8.0000000   6.0000000   1.0000000   1.0000000   6.0000000

  Atom        71          72          73          74          75          76          77          78          79          80
 IAtWgt=           1           1          16          12           1           1          12           1           1          16
 AtmWgt=   1.0078250   1.0078250  15.9949146  12.0000000   1.0078250   1.0078250  12.0000000   1.0078250   1.0078250  15.9949146
 NucSpn=           1           1           0           0           1           1           0           1           1           0
 AtZEff=  -0.0000000  -0.0000000  -0.0000000  -0.0000000  -0.0000000  -0.0000000  -0.0000000  -0.0000000  -0.0000000  -0.0000000
 NQMom=    0.0000000   0.0000000   0.0000000   0.0000000   0.0000000   0.0000000   0.0000000   0.0000000   0.0000000   0.0000000
 NMagM=    2.7928460   2.7928460   0.0000000   0.0000000   2.7928460   2.7928460   0.0000000   2.7928460   2.7928460   0.0000000
 AtZNuc=   1.0000000   1.0000000   8.0000000   6.0000000   1.0000000   1.0000000   6.0000000   1.0000000   1.0000000   8.0000000

  Atom        81          82          83          84          85          86          87          88          89          90
 IAtWgt=          12           1           1          12           1           1          16          12           1           1
 AtmWgt=  12.0000000   1.0078250   1.0078250  12.0000000   1.0078250   1.0078250  15.9949146  12.0000000   1.0078250   1.0078250
 NucSpn=           0           1           1           0           1           1           0           0           1           1
 AtZEff=  -0.0000000  -0.0000000  -0.0000000  -0.0000000  -0.0000000  -0.0000000  -0.0000000  -0.0000000  -0.0000000  -0.0000000
 NQMom=    0.0000000   0.0000000   0.0000000   0.0000000   0.0000000   0.0000000   0.0000000   0.0000000   0.0000000   0.0000000
 NMagM=    0.0000000   2.7928460   2.7928460   0.0000000   2.7928460   2.7928460   0.0000000   0.0000000   2.7928460   2.7928460
 AtZNuc=   6.0000000   1.0000000   1.0000000   6.0000000   1.0000000   1.0000000   8.0000000   6.0000000   1.0000000   1.0000000

  Atom        91          92          93          94          95
 IAtWgt=          12           1           1          16           1
 AtmWgt=  12.0000000   1.0078250   1.0078250  15.9949146   1.0078250
 NucSpn=           0           1           1           0           1
 AtZEff=  -0.0000000  -0.0000000  -0.0000000  -0.0000000  -0.0000000
 NQMom=    0.0000000   0.0000000   0.0000000   0.0000000   0.0000000
 NMagM=    0.0000000   2.7928460   2.7928460   0.0000000   2.7928460
 AtZNuc=   6.0000000   1.0000000   1.0000000   8.0000000   1.0000000
 Leave Link  101 at Wed Sep 30 05:10:50 2020, MaxMem=  3221225472 cpu:               2.0 elap:               0.4
 (Enter /usr/local/Gaussian/gaussian-16-A03-avx2/g16/l103.exe)

 GradGradGradGradGradGradGradGradGradGradGradGradGradGradGradGradGradGrad
 Berny optimization.
 Initialization pass.
                           ----------------------------
                           !    Initial Parameters    !
                           ! (Angstroms and Degrees)  !
 --------------------------                            --------------------------
 ! Name  Definition              Value          Derivative Info.                !
 --------------------------------------------------------------------------------
 ! R1    R(1,2)                  1.07           estimate D2E/DX2                !
 ! R2    R(1,3)                  1.07           estimate D2E/DX2                !
 ! R3    R(1,4)                  1.54           estimate D2E/DX2                !
 ! R4    R(1,38)                 1.43           estimate D2E/DX2                !
 ! R5    R(4,5)                  1.07           estimate D2E/DX2                !
 ! R6    R(4,6)                  1.07           estimate D2E/DX2                !
 ! R7    R(4,7)                  1.54           estimate D2E/DX2                !
 ! R8    R(7,8)                  1.07           estimate D2E/DX2                !
 ! R9    R(7,9)                  1.07           estimate D2E/DX2                !
 ! R10   R(7,10)                 1.54           estimate D2E/DX2                !
 ! R11   R(10,11)                1.07           estimate D2E/DX2                !
 ! R12   R(10,12)                1.07           estimate D2E/DX2                !
 ! R13   R(10,13)                1.54           estimate D2E/DX2                !
 ! R14   R(13,14)                1.07           estimate D2E/DX2                !
 ! R15   R(13,15)                1.07           estimate D2E/DX2                !
 ! R16   R(13,16)                1.54           estimate D2E/DX2                !
 ! R17   R(16,17)                1.07           estimate D2E/DX2                !
 ! R18   R(16,18)                1.07           estimate D2E/DX2                !
 ! R19   R(16,19)                1.54           estimate D2E/DX2                !
 ! R20   R(19,20)                1.07           estimate D2E/DX2                !
 ! R21   R(19,21)                1.07           estimate D2E/DX2                !
 ! R22   R(19,22)                1.54           estimate D2E/DX2                !
 ! R23   R(22,23)                1.07           estimate D2E/DX2                !
 ! R24   R(22,24)                1.07           estimate D2E/DX2                !
 ! R25   R(22,25)                1.54           estimate D2E/DX2                !
 ! R26   R(25,26)                1.07           estimate D2E/DX2                !
 ! R27   R(25,27)                1.07           estimate D2E/DX2                !
 ! R28   R(25,28)                1.54           estimate D2E/DX2                !
 ! R29   R(28,29)                1.07           estimate D2E/DX2                !
 ! R30   R(28,30)                1.07           estimate D2E/DX2                !
 ! R31   R(28,31)                1.54           estimate D2E/DX2                !
 ! R32   R(31,32)                1.07           estimate D2E/DX2                !
 ! R33   R(31,33)                1.07           estimate D2E/DX2                !
 ! R34   R(31,34)                1.54           estimate D2E/DX2                !
 ! R35   R(34,35)                1.07           estimate D2E/DX2                !
 ! R36   R(34,36)                1.07           estimate D2E/DX2                !
 ! R37   R(34,37)                1.07           estimate D2E/DX2                !
 ! R38   R(38,39)                1.43           estimate D2E/DX2                !
 ! R39   R(39,40)                1.07           estimate D2E/DX2                !
 ! R40   R(39,41)                1.07           estimate D2E/DX2                !
 ! R41   R(39,42)                1.54           estimate D2E/DX2                !
 ! R42   R(42,43)                1.07           estimate D2E/DX2                !
 ! R43   R(42,44)                1.07           estimate D2E/DX2                !
 ! R44   R(42,45)                1.43           estimate D2E/DX2                !
 ! R45   R(45,46)                1.43           estimate D2E/DX2                !
 ! R46   R(46,47)                1.07           estimate D2E/DX2                !
 ! R47   R(46,48)                1.07           estimate D2E/DX2                !
 ! R48   R(46,49)                1.54           estimate D2E/DX2                !
 ! R49   R(49,50)                1.07           estimate D2E/DX2                !
 ! R50   R(49,51)                1.07           estimate D2E/DX2                !
 ! R51   R(49,52)                1.43           estimate D2E/DX2                !
 ! R52   R(52,53)                1.43           estimate D2E/DX2                !
 ! R53   R(53,54)                1.07           estimate D2E/DX2                !
 ! R54   R(53,55)                1.07           estimate D2E/DX2                !
 ! R55   R(53,56)                1.54           estimate D2E/DX2                !
 ! R56   R(56,57)                1.07           estimate D2E/DX2                !
 ! R57   R(56,58)                1.07           estimate D2E/DX2                !
 ! R58   R(56,59)                1.43           estimate D2E/DX2                !
 ! R59   R(59,60)                1.43           estimate D2E/DX2                !
 ! R60   R(60,61)                1.07           estimate D2E/DX2                !
 ! R61   R(60,62)                1.07           estimate D2E/DX2                !
 ! R62   R(60,63)                1.54           estimate D2E/DX2                !
 ! R63   R(63,64)                1.07           estimate D2E/DX2                !
 ! R64   R(63,65)                1.07           estimate D2E/DX2                !
 ! R65   R(63,66)                1.43           estimate D2E/DX2                !
 ! R66   R(66,67)                1.43           estimate D2E/DX2                !
 ! R67   R(67,68)                1.07           estimate D2E/DX2                !
 ! R68   R(67,69)                1.07           estimate D2E/DX2                !
 ! R69   R(67,70)                1.54           estimate D2E/DX2                !
 ! R70   R(70,71)                1.07           estimate D2E/DX2                !
 ! R71   R(70,72)                1.07           estimate D2E/DX2                !
 ! R72   R(70,73)                1.43           estimate D2E/DX2                !
 ! R73   R(73,74)                1.43           estimate D2E/DX2                !
 ! R74   R(74,75)                1.07           estimate D2E/DX2                !
 ! R75   R(74,76)                1.07           estimate D2E/DX2                !
 ! R76   R(74,77)                1.54           estimate D2E/DX2                !
 ! R77   R(77,78)                1.07           estimate D2E/DX2                !
 ! R78   R(77,79)                1.07           estimate D2E/DX2                !
 ! R79   R(77,80)                1.43           estimate D2E/DX2                !
 ! R80   R(80,81)                1.43           estimate D2E/DX2                !
 ! R81   R(81,82)                1.07           estimate D2E/DX2                !
 ! R82   R(81,83)                1.07           estimate D2E/DX2                !
 ! R83   R(81,84)                1.54           estimate D2E/DX2                !
 ! R84   R(84,85)                1.07           estimate D2E/DX2                !
 ! R85   R(84,86)                1.07           estimate D2E/DX2                !
 ! R86   R(84,87)                1.43           estimate D2E/DX2                !
 ! R87   R(87,88)                1.43           estimate D2E/DX2                !
 ! R88   R(88,89)                1.07           estimate D2E/DX2                !
 ! R89   R(88,90)                1.07           estimate D2E/DX2                !
 ! R90   R(88,91)                1.54           estimate D2E/DX2                !
 ! R91   R(91,92)                1.07           estimate D2E/DX2                !
 ! R92   R(91,93)                1.07           estimate D2E/DX2                !
 ! R93   R(91,94)                1.43           estimate D2E/DX2                !
 ! R94   R(94,95)                0.96           estimate D2E/DX2                !
 ! A1    A(2,1,3)              109.4712         estimate D2E/DX2                !
 ! A2    A(2,1,4)              109.4712         estimate D2E/DX2                !
 ! A3    A(2,1,38)             109.4712         estimate D2E/DX2                !
 ! A4    A(3,1,4)              109.4712         estimate D2E/DX2                !
 ! A5    A(3,1,38)             109.4712         estimate D2E/DX2                !
 ! A6    A(4,1,38)             109.4713         estimate D2E/DX2                !
 ! A7    A(1,4,5)              109.4712         estimate D2E/DX2                !
 ! A8    A(1,4,6)              109.4712         estimate D2E/DX2                !
 ! A9    A(1,4,7)              109.4712         estimate D2E/DX2                !
 ! A10   A(5,4,6)              109.4713         estimate D2E/DX2                !
 ! A11   A(5,4,7)              109.4712         estimate D2E/DX2                !
 ! A12   A(6,4,7)              109.4712         estimate D2E/DX2                !
 ! A13   A(4,7,8)              109.4712         estimate D2E/DX2                !
 ! A14   A(4,7,9)              109.4712         estimate D2E/DX2                !
 ! A15   A(4,7,10)             109.4712         estimate D2E/DX2                !
 ! A16   A(8,7,9)              109.4712         estimate D2E/DX2                !
 ! A17   A(8,7,10)             109.4713         estimate D2E/DX2                !
 ! A18   A(9,7,10)             109.4712         estimate D2E/DX2                !
 ! A19   A(7,10,11)            109.4712         estimate D2E/DX2                !
 ! A20   A(7,10,12)            109.4712         estimate D2E/DX2                !
 ! A21   A(7,10,13)            109.4712         estimate D2E/DX2                !
 ! A22   A(11,10,12)           109.4712         estimate D2E/DX2                !
 ! A23   A(11,10,13)           109.4713         estimate D2E/DX2                !
 ! A24   A(12,10,13)           109.4712         estimate D2E/DX2                !
 ! A25   A(10,13,14)           109.4712         estimate D2E/DX2                !
 ! A26   A(10,13,15)           109.4712         estimate D2E/DX2                !
 ! A27   A(10,13,16)           109.4712         estimate D2E/DX2                !
 ! A28   A(14,13,15)           109.4712         estimate D2E/DX2                !
 ! A29   A(14,13,16)           109.4713         estimate D2E/DX2                !
 ! A30   A(15,13,16)           109.4712         estimate D2E/DX2                !
 ! A31   A(13,16,17)           109.4712         estimate D2E/DX2                !
 ! A32   A(13,16,18)           109.4712         estimate D2E/DX2                !
 ! A33   A(13,16,19)           109.4712         estimate D2E/DX2                !
 ! A34   A(17,16,18)           109.4712         estimate D2E/DX2                !
 ! A35   A(17,16,19)           109.4713         estimate D2E/DX2                !
 ! A36   A(18,16,19)           109.4712         estimate D2E/DX2                !
 ! A37   A(16,19,20)           109.4712         estimate D2E/DX2                !
 ! A38   A(16,19,21)           109.4712         estimate D2E/DX2                !
 ! A39   A(16,19,22)           109.4712         estimate D2E/DX2                !
 ! A40   A(20,19,21)           109.4712         estimate D2E/DX2                !
 ! A41   A(20,19,22)           109.4713         estimate D2E/DX2                !
 ! A42   A(21,19,22)           109.4712         estimate D2E/DX2                !
 ! A43   A(19,22,23)           109.4712         estimate D2E/DX2                !
 ! A44   A(19,22,24)           109.4712         estimate D2E/DX2                !
 ! A45   A(19,22,25)           109.4712         estimate D2E/DX2                !
 ! A46   A(23,22,24)           109.4712         estimate D2E/DX2                !
 ! A47   A(23,22,25)           109.4713         estimate D2E/DX2                !
 ! A48   A(24,22,25)           109.4712         estimate D2E/DX2                !
 ! A49   A(22,25,26)           109.4712         estimate D2E/DX2                !
 ! A50   A(22,25,27)           109.4712         estimate D2E/DX2                !
 ! A51   A(22,25,28)           109.4712         estimate D2E/DX2                !
 ! A52   A(26,25,27)           109.4712         estimate D2E/DX2                !
 ! A53   A(26,25,28)           109.4713         estimate D2E/DX2                !
 ! A54   A(27,25,28)           109.4712         estimate D2E/DX2                !
 ! A55   A(25,28,29)           109.4712         estimate D2E/DX2                !
 ! A56   A(25,28,30)           109.4712         estimate D2E/DX2                !
 ! A57   A(25,28,31)           109.4712         estimate D2E/DX2                !
 ! A58   A(29,28,30)           109.4712         estimate D2E/DX2                !
 ! A59   A(29,28,31)           109.4713         estimate D2E/DX2                !
 ! A60   A(30,28,31)           109.4712         estimate D2E/DX2                !
 ! A61   A(28,31,32)           109.4712         estimate D2E/DX2                !
 ! A62   A(28,31,33)           109.4712         estimate D2E/DX2                !
 ! A63   A(28,31,34)           109.4712         estimate D2E/DX2                !
 ! A64   A(32,31,33)           109.4712         estimate D2E/DX2                !
 ! A65   A(32,31,34)           109.4713         estimate D2E/DX2                !
 ! A66   A(33,31,34)           109.4712         estimate D2E/DX2                !
 ! A67   A(31,34,35)           109.4712         estimate D2E/DX2                !
 ! A68   A(31,34,36)           109.4712         estimate D2E/DX2                !
 ! A69   A(31,34,37)           109.4712         estimate D2E/DX2                !
 ! A70   A(35,34,36)           109.4713         estimate D2E/DX2                !
 ! A71   A(35,34,37)           109.4712         estimate D2E/DX2                !
 ! A72   A(36,34,37)           109.4712         estimate D2E/DX2                !
 ! A73   A(1,38,39)            109.5            estimate D2E/DX2                !
 ! A74   A(38,39,40)           109.4712         estimate D2E/DX2                !
 ! A75   A(38,39,41)           109.4712         estimate D2E/DX2                !
 ! A76   A(38,39,42)           109.4712         estimate D2E/DX2                !
 ! A77   A(40,39,41)           109.4712         estimate D2E/DX2                !
 ! A78   A(40,39,42)           109.4713         estimate D2E/DX2                !
 ! A79   A(41,39,42)           109.4712         estimate D2E/DX2                !
 ! A80   A(39,42,43)           109.4712         estimate D2E/DX2                !
 ! A81   A(39,42,44)           109.4712         estimate D2E/DX2                !
 ! A82   A(39,42,45)           109.4712         estimate D2E/DX2                !
 ! A83   A(43,42,44)           109.4712         estimate D2E/DX2                !
 ! A84   A(43,42,45)           109.4713         estimate D2E/DX2                !
 ! A85   A(44,42,45)           109.4712         estimate D2E/DX2                !
 ! A86   A(42,45,46)           109.5            estimate D2E/DX2                !
 ! A87   A(45,46,47)           109.4712         estimate D2E/DX2                !
 ! A88   A(45,46,48)           109.4712         estimate D2E/DX2                !
 ! A89   A(45,46,49)           109.4712         estimate D2E/DX2                !
 ! A90   A(47,46,48)           109.4712         estimate D2E/DX2                !
 ! A91   A(47,46,49)           109.4713         estimate D2E/DX2                !
 ! A92   A(48,46,49)           109.4712         estimate D2E/DX2                !
 ! A93   A(46,49,50)           109.4712         estimate D2E/DX2                !
 ! A94   A(46,49,51)           109.4712         estimate D2E/DX2                !
 ! A95   A(46,49,52)           109.4712         estimate D2E/DX2                !
 ! A96   A(50,49,51)           109.4712         estimate D2E/DX2                !
 ! A97   A(50,49,52)           109.4713         estimate D2E/DX2                !
 ! A98   A(51,49,52)           109.4712         estimate D2E/DX2                !
 ! A99   A(49,52,53)           109.5            estimate D2E/DX2                !
 ! A100  A(52,53,54)           109.4712         estimate D2E/DX2                !
 ! A101  A(52,53,55)           109.4712         estimate D2E/DX2                !
 ! A102  A(52,53,56)           109.4712         estimate D2E/DX2                !
 ! A103  A(54,53,55)           109.4712         estimate D2E/DX2                !
 ! A104  A(54,53,56)           109.4713         estimate D2E/DX2                !
 ! A105  A(55,53,56)           109.4712         estimate D2E/DX2                !
 ! A106  A(53,56,57)           109.4712         estimate D2E/DX2                !
 ! A107  A(53,56,58)           109.4712         estimate D2E/DX2                !
 ! A108  A(53,56,59)           109.4712         estimate D2E/DX2                !
 ! A109  A(57,56,58)           109.4712         estimate D2E/DX2                !
 ! A110  A(57,56,59)           109.4713         estimate D2E/DX2                !
 ! A111  A(58,56,59)           109.4712         estimate D2E/DX2                !
 ! A112  A(56,59,60)           109.5            estimate D2E/DX2                !
 ! A113  A(59,60,61)           109.4712         estimate D2E/DX2                !
 ! A114  A(59,60,62)           109.4712         estimate D2E/DX2                !
 ! A115  A(59,60,63)           109.4712         estimate D2E/DX2                !
 ! A116  A(61,60,62)           109.4712         estimate D2E/DX2                !
 ! A117  A(61,60,63)           109.4713         estimate D2E/DX2                !
 ! A118  A(62,60,63)           109.4712         estimate D2E/DX2                !
 ! A119  A(60,63,64)           109.4712         estimate D2E/DX2                !
 ! A120  A(60,63,65)           109.4712         estimate D2E/DX2                !
 ! A121  A(60,63,66)           109.4712         estimate D2E/DX2                !
 ! A122  A(64,63,65)           109.4712         estimate D2E/DX2                !
 ! A123  A(64,63,66)           109.4713         estimate D2E/DX2                !
 ! A124  A(65,63,66)           109.4712         estimate D2E/DX2                !
 ! A125  A(63,66,67)           109.5            estimate D2E/DX2                !
 ! A126  A(66,67,68)           109.4712         estimate D2E/DX2                !
 ! A127  A(66,67,69)           109.4712         estimate D2E/DX2                !
 ! A128  A(66,67,70)           109.4712         estimate D2E/DX2                !
 ! A129  A(68,67,69)           109.4712         estimate D2E/DX2                !
 ! A130  A(68,67,70)           109.4713         estimate D2E/DX2                !
 ! A131  A(69,67,70)           109.4712         estimate D2E/DX2                !
 ! A132  A(67,70,71)           109.4712         estimate D2E/DX2                !
 ! A133  A(67,70,72)           109.4712         estimate D2E/DX2                !
 ! A134  A(67,70,73)           109.4712         estimate D2E/DX2                !
 ! A135  A(71,70,72)           109.4712         estimate D2E/DX2                !
 ! A136  A(71,70,73)           109.4713         estimate D2E/DX2                !
 ! A137  A(72,70,73)           109.4712         estimate D2E/DX2                !
 ! A138  A(70,73,74)           109.5            estimate D2E/DX2                !
 ! A139  A(73,74,75)           109.4712         estimate D2E/DX2                !
 ! A140  A(73,74,76)           109.4712         estimate D2E/DX2                !
 ! A141  A(73,74,77)           109.4712         estimate D2E/DX2                !
 ! A142  A(75,74,76)           109.4712         estimate D2E/DX2                !
 ! A143  A(75,74,77)           109.4713         estimate D2E/DX2                !
 ! A144  A(76,74,77)           109.4712         estimate D2E/DX2                !
 ! A145  A(74,77,78)           109.4712         estimate D2E/DX2                !
 ! A146  A(74,77,79)           109.4712         estimate D2E/DX2                !
 ! A147  A(74,77,80)           109.4712         estimate D2E/DX2                !
 ! A148  A(78,77,79)           109.4712         estimate D2E/DX2                !
 ! A149  A(78,77,80)           109.4713         estimate D2E/DX2                !
 ! A150  A(79,77,80)           109.4712         estimate D2E/DX2                !
 ! A151  A(77,80,81)           109.5            estimate D2E/DX2                !
 ! A152  A(80,81,82)           109.4712         estimate D2E/DX2                !
 ! A153  A(80,81,83)           109.4712         estimate D2E/DX2                !
 ! A154  A(80,81,84)           109.4712         estimate D2E/DX2                !
 ! A155  A(82,81,83)           109.4712         estimate D2E/DX2                !
 ! A156  A(82,81,84)           109.4713         estimate D2E/DX2                !
 ! A157  A(83,81,84)           109.4712         estimate D2E/DX2                !
 ! A158  A(81,84,85)           109.4712         estimate D2E/DX2                !
 ! A159  A(81,84,86)           109.4712         estimate D2E/DX2                !
 ! A160  A(81,84,87)           109.4712         estimate D2E/DX2                !
 ! A161  A(85,84,86)           109.4712         estimate D2E/DX2                !
 ! A162  A(85,84,87)           109.4713         estimate D2E/DX2                !
 ! A163  A(86,84,87)           109.4712         estimate D2E/DX2                !
 ! A164  A(84,87,88)           109.5            estimate D2E/DX2                !
 ! A165  A(87,88,89)           109.4712         estimate D2E/DX2                !
 ! A166  A(87,88,90)           109.4712         estimate D2E/DX2                !
 ! A167  A(87,88,91)           109.4712         estimate D2E/DX2                !
 ! A168  A(89,88,90)           109.4712         estimate D2E/DX2                !
 ! A169  A(89,88,91)           109.4713         estimate D2E/DX2                !
 ! A170  A(90,88,91)           109.4712         estimate D2E/DX2                !
 ! A171  A(88,91,92)           109.4712         estimate D2E/DX2                !
 ! A172  A(88,91,93)           109.4712         estimate D2E/DX2                !
 ! A173  A(88,91,94)           109.4712         estimate D2E/DX2                !
 ! A174  A(92,91,93)           109.4712         estimate D2E/DX2                !
 ! A175  A(92,91,94)           109.4713         estimate D2E/DX2                !
 ! A176  A(93,91,94)           109.4712         estimate D2E/DX2                !
 ! A177  A(91,94,95)           109.5            estimate D2E/DX2                !
 ! D1    D(2,1,4,5)             59.8889         estimate D2E/DX2                !
 ! D2    D(2,1,4,6)            179.8889         estimate D2E/DX2                !
 ! D3    D(2,1,4,7)            -60.1111         estimate D2E/DX2                !
 ! D4    D(3,1,4,5)            179.8889         estimate D2E/DX2                !
 ! D5    D(3,1,4,6)            -60.1111         estimate D2E/DX2                !
 ! D6    D(3,1,4,7)             59.8889         estimate D2E/DX2                !
 ! D7    D(38,1,4,5)           -60.1111         estimate D2E/DX2                !
 ! D8    D(38,1,4,6)            59.8889         estimate D2E/DX2                !
 ! D9    D(38,1,4,7)           179.8889         estimate D2E/DX2                !
 ! D10   D(2,1,38,39)           59.9485         estimate D2E/DX2                !
 ! D11   D(3,1,38,39)          -60.0515         estimate D2E/DX2                !
 ! D12   D(4,1,38,39)          179.9485         estimate D2E/DX2                !
 ! D13   D(1,4,7,8)             59.9786         estimate D2E/DX2                !
 ! D14   D(1,4,7,9)            -60.0214         estimate D2E/DX2                !
 ! D15   D(1,4,7,10)           179.9786         estimate D2E/DX2                !
 ! D16   D(5,4,7,8)            -60.0214         estimate D2E/DX2                !
 ! D17   D(5,4,7,9)            179.9786         estimate D2E/DX2                !
 ! D18   D(5,4,7,10)            59.9786         estimate D2E/DX2                !
 ! D19   D(6,4,7,8)            179.9786         estimate D2E/DX2                !
 ! D20   D(6,4,7,9)             59.9786         estimate D2E/DX2                !
 ! D21   D(6,4,7,10)           -60.0214         estimate D2E/DX2                !
 ! D22   D(4,7,10,11)           59.9953         estimate D2E/DX2                !
 ! D23   D(4,7,10,12)          -60.0047         estimate D2E/DX2                !
 ! D24   D(4,7,10,13)          179.9953         estimate D2E/DX2                !
 ! D25   D(8,7,10,11)          179.9953         estimate D2E/DX2                !
 ! D26   D(8,7,10,12)           59.9953         estimate D2E/DX2                !
 ! D27   D(8,7,10,13)          -60.0047         estimate D2E/DX2                !
 ! D28   D(9,7,10,11)          -60.0047         estimate D2E/DX2                !
 ! D29   D(9,7,10,12)          179.9953         estimate D2E/DX2                !
 ! D30   D(9,7,10,13)           59.9953         estimate D2E/DX2                !
 ! D31   D(7,10,13,14)          59.9995         estimate D2E/DX2                !
 ! D32   D(7,10,13,15)         -60.0005         estimate D2E/DX2                !
 ! D33   D(7,10,13,16)         179.9995         estimate D2E/DX2                !
 ! D34   D(11,10,13,14)        179.9994         estimate D2E/DX2                !
 ! D35   D(11,10,13,15)         59.9995         estimate D2E/DX2                !
 ! D36   D(11,10,13,16)        -60.0005         estimate D2E/DX2                !
 ! D37   D(12,10,13,14)        -60.0005         estimate D2E/DX2                !
 ! D38   D(12,10,13,15)        179.9995         estimate D2E/DX2                !
 ! D39   D(12,10,13,16)         59.9995         estimate D2E/DX2                !
 ! D40   D(10,13,16,17)         59.9999         estimate D2E/DX2                !
 ! D41   D(10,13,16,18)        -60.0001         estimate D2E/DX2                !
 ! D42   D(10,13,16,19)        179.9999         estimate D2E/DX2                !
 ! D43   D(14,13,16,17)        179.9999         estimate D2E/DX2                !
 ! D44   D(14,13,16,18)         59.9999         estimate D2E/DX2                !
 ! D45   D(14,13,16,19)        -60.0001         estimate D2E/DX2                !
 ! D46   D(15,13,16,17)        -60.0001         estimate D2E/DX2                !
 ! D47   D(15,13,16,18)        179.9999         estimate D2E/DX2                !
 ! D48   D(15,13,16,19)         59.9999         estimate D2E/DX2                !
 ! D49   D(13,16,19,20)         60.0001         estimate D2E/DX2                !
 ! D50   D(13,16,19,21)        -59.9999         estimate D2E/DX2                !
 ! D51   D(13,16,19,22)       -179.9999         estimate D2E/DX2                !
 ! D52   D(17,16,19,20)       -179.9999         estimate D2E/DX2                !
 ! D53   D(17,16,19,21)         60.0001         estimate D2E/DX2                !
 ! D54   D(17,16,19,22)        -59.9999         estimate D2E/DX2                !
 ! D55   D(18,16,19,20)        -59.9999         estimate D2E/DX2                !
 ! D56   D(18,16,19,21)       -179.9999         estimate D2E/DX2                !
 ! D57   D(18,16,19,22)         60.0001         estimate D2E/DX2                !
 ! D58   D(16,19,22,23)         60.0001         estimate D2E/DX2                !
 ! D59   D(16,19,22,24)        -59.9999         estimate D2E/DX2                !
 ! D60   D(16,19,22,25)       -179.9999         estimate D2E/DX2                !
 ! D61   D(20,19,22,23)       -179.9999         estimate D2E/DX2                !
 ! D62   D(20,19,22,24)         60.0001         estimate D2E/DX2                !
 ! D63   D(20,19,22,25)        -59.9999         estimate D2E/DX2                !
 ! D64   D(21,19,22,23)        -59.9999         estimate D2E/DX2                !
 ! D65   D(21,19,22,24)       -179.9999         estimate D2E/DX2                !
 ! D66   D(21,19,22,25)         60.0001         estimate D2E/DX2                !
 ! D67   D(19,22,25,26)         60.0001         estimate D2E/DX2                !
 ! D68   D(19,22,25,27)        -59.9999         estimate D2E/DX2                !
 ! D69   D(19,22,25,28)       -179.9999         estimate D2E/DX2                !
 ! D70   D(23,22,25,26)       -179.9999         estimate D2E/DX2                !
 ! D71   D(23,22,25,27)         60.0001         estimate D2E/DX2                !
 ! D72   D(23,22,25,28)        -59.9999         estimate D2E/DX2                !
 ! D73   D(24,22,25,26)        -59.9999         estimate D2E/DX2                !
 ! D74   D(24,22,25,27)       -179.9999         estimate D2E/DX2                !
 ! D75   D(24,22,25,28)         60.0001         estimate D2E/DX2                !
 ! D76   D(22,25,28,29)         60.0001         estimate D2E/DX2                !
 ! D77   D(22,25,28,30)        -59.9999         estimate D2E/DX2                !
 ! D78   D(22,25,28,31)       -179.9999         estimate D2E/DX2                !
 ! D79   D(26,25,28,29)       -179.9999         estimate D2E/DX2                !
 ! D80   D(26,25,28,30)         60.0001         estimate D2E/DX2                !
 ! D81   D(26,25,28,31)        -59.9999         estimate D2E/DX2                !
 ! D82   D(27,25,28,29)        -59.9999         estimate D2E/DX2                !
 ! D83   D(27,25,28,30)       -179.9999         estimate D2E/DX2                !
 ! D84   D(27,25,28,31)         60.0001         estimate D2E/DX2                !
 ! D85   D(25,28,31,32)         60.0001         estimate D2E/DX2                !
 ! D86   D(25,28,31,33)        -59.9999         estimate D2E/DX2                !
 ! D87   D(25,28,31,34)       -179.9999         estimate D2E/DX2                !
 ! D88   D(29,28,31,32)       -179.9999         estimate D2E/DX2                !
 ! D89   D(29,28,31,33)         60.0001         estimate D2E/DX2                !
 ! D90   D(29,28,31,34)        -59.9999         estimate D2E/DX2                !
 ! D91   D(30,28,31,32)        -59.9999         estimate D2E/DX2                !
 ! D92   D(30,28,31,33)       -179.9999         estimate D2E/DX2                !
 ! D93   D(30,28,31,34)         60.0001         estimate D2E/DX2                !
 ! D94   D(28,31,34,35)         60.0001         estimate D2E/DX2                !
 ! D95   D(28,31,34,36)       -179.9999         estimate D2E/DX2                !
 ! D96   D(28,31,34,37)        -59.9999         estimate D2E/DX2                !
 ! D97   D(32,31,34,35)       -179.9999         estimate D2E/DX2                !
 ! D98   D(32,31,34,36)        -59.9999         estimate D2E/DX2                !
 ! D99   D(32,31,34,37)         60.0001         estimate D2E/DX2                !
 ! D100  D(33,31,34,35)        -59.9999         estimate D2E/DX2                !
 ! D101  D(33,31,34,36)         60.0001         estimate D2E/DX2                !
 ! D102  D(33,31,34,37)       -179.9999         estimate D2E/DX2                !
 ! D103  D(1,38,39,40)          59.9906         estimate D2E/DX2                !
 ! D104  D(1,38,39,41)         -60.0094         estimate D2E/DX2                !
 ! D105  D(1,38,39,42)         179.9906         estimate D2E/DX2                !
 ! D106  D(38,39,42,43)         59.9999         estimate D2E/DX2                !
 ! D107  D(38,39,42,44)        -60.0001         estimate D2E/DX2                !
 ! D108  D(38,39,42,45)        179.9999         estimate D2E/DX2                !
 ! D109  D(40,39,42,43)        179.9999         estimate D2E/DX2                !
 ! D110  D(40,39,42,44)         59.9999         estimate D2E/DX2                !
 ! D111  D(40,39,42,45)        -60.0001         estimate D2E/DX2                !
 ! D112  D(41,39,42,43)        -60.0001         estimate D2E/DX2                !
 ! D113  D(41,39,42,44)        179.9999         estimate D2E/DX2                !
 ! D114  D(41,39,42,45)         59.9999         estimate D2E/DX2                !
 ! D115  D(39,42,45,46)       -179.9937         estimate D2E/DX2                !
 ! D116  D(43,42,45,46)        -59.9938         estimate D2E/DX2                !
 ! D117  D(44,42,45,46)         60.0062         estimate D2E/DX2                !
 ! D118  D(42,45,46,47)         60.0021         estimate D2E/DX2                !
 ! D119  D(42,45,46,48)        -59.9979         estimate D2E/DX2                !
 ! D120  D(42,45,46,49)       -179.9979         estimate D2E/DX2                !
 ! D121  D(45,46,49,50)         60.0001         estimate D2E/DX2                !
 ! D122  D(45,46,49,51)        -59.9999         estimate D2E/DX2                !
 ! D123  D(45,46,49,52)       -179.9999         estimate D2E/DX2                !
 ! D124  D(47,46,49,50)       -179.9999         estimate D2E/DX2                !
 ! D125  D(47,46,49,51)         60.0001         estimate D2E/DX2                !
 ! D126  D(47,46,49,52)        -59.9999         estimate D2E/DX2                !
 ! D127  D(48,46,49,50)        -59.9999         estimate D2E/DX2                !
 ! D128  D(48,46,49,51)       -179.9999         estimate D2E/DX2                !
 ! D129  D(48,46,49,52)         60.0001         estimate D2E/DX2                !
 ! D130  D(46,49,52,53)        179.9979         estimate D2E/DX2                !
 ! D131  D(50,49,52,53)        -60.0021         estimate D2E/DX2                !
 ! D132  D(51,49,52,53)         59.9979         estimate D2E/DX2                !
 ! D133  D(49,52,53,54)         59.9994         estimate D2E/DX2                !
 ! D134  D(49,52,53,55)        -60.0006         estimate D2E/DX2                !
 ! D135  D(49,52,53,56)        179.9994         estimate D2E/DX2                !
 ! D136  D(52,53,56,57)         60.0001         estimate D2E/DX2                !
 ! D137  D(52,53,56,58)        -59.9999         estimate D2E/DX2                !
 ! D138  D(52,53,56,59)       -179.9999         estimate D2E/DX2                !
 ! D139  D(54,53,56,57)       -179.9999         estimate D2E/DX2                !
 ! D140  D(54,53,56,58)         60.0001         estimate D2E/DX2                !
 ! D141  D(54,53,56,59)        -59.9999         estimate D2E/DX2                !
 ! D142  D(55,53,56,57)        -59.9999         estimate D2E/DX2                !
 ! D143  D(55,53,56,58)       -179.9999         estimate D2E/DX2                !
 ! D144  D(55,53,56,59)         60.0001         estimate D2E/DX2                !
 ! D145  D(53,56,59,60)        179.9997         estimate D2E/DX2                !
 ! D146  D(57,56,59,60)        -60.0003         estimate D2E/DX2                !
 ! D147  D(58,56,59,60)         59.9997         estimate D2E/DX2                !
 ! D148  D(56,59,60,61)         60.0            estimate D2E/DX2                !
 ! D149  D(56,59,60,62)        -60.0            estimate D2E/DX2                !
 ! D150  D(56,59,60,63)        180.0            estimate D2E/DX2                !
 ! D151  D(59,60,63,64)         60.0001         estimate D2E/DX2                !
 ! D152  D(59,60,63,65)        -59.9999         estimate D2E/DX2                !
 ! D153  D(59,60,63,66)       -179.9999         estimate D2E/DX2                !
 ! D154  D(61,60,63,64)       -179.9999         estimate D2E/DX2                !
 ! D155  D(61,60,63,65)         60.0001         estimate D2E/DX2                !
 ! D156  D(61,60,63,66)        -59.9999         estimate D2E/DX2                !
 ! D157  D(62,60,63,64)        -59.9999         estimate D2E/DX2                !
 ! D158  D(62,60,63,65)       -179.9999         estimate D2E/DX2                !
 ! D159  D(62,60,63,66)         60.0001         estimate D2E/DX2                !
 ! D160  D(60,63,66,67)        179.9993         estimate D2E/DX2                !
 ! D161  D(64,63,66,67)        -60.0007         estimate D2E/DX2                !
 ! D162  D(65,63,66,67)         59.9993         estimate D2E/DX2                !
 ! D163  D(63,66,67,68)         59.9998         estimate D2E/DX2                !
 ! D164  D(63,66,67,69)        -60.0002         estimate D2E/DX2                !
 ! D165  D(63,66,67,70)        179.9998         estimate D2E/DX2                !
 ! D166  D(66,67,70,71)         60.0001         estimate D2E/DX2                !
 ! D167  D(66,67,70,72)        -59.9999         estimate D2E/DX2                !
 ! D168  D(66,67,70,73)       -179.9999         estimate D2E/DX2                !
 ! D169  D(68,67,70,71)       -179.9999         estimate D2E/DX2                !
 ! D170  D(68,67,70,72)         60.0001         estimate D2E/DX2                !
 ! D171  D(68,67,70,73)        -59.9999         estimate D2E/DX2                !
 ! D172  D(69,67,70,71)        -59.9999         estimate D2E/DX2                !
 ! D173  D(69,67,70,72)       -179.9999         estimate D2E/DX2                !
 ! D174  D(69,67,70,73)         60.0001         estimate D2E/DX2                !
 ! D175  D(67,70,73,74)       -179.9996         estimate D2E/DX2                !
 ! D176  D(71,70,73,74)        -59.9997         estimate D2E/DX2                !
 ! D177  D(72,70,73,74)         60.0004         estimate D2E/DX2                !
 ! D178  D(70,73,74,75)         60.0002         estimate D2E/DX2                !
 ! D179  D(70,73,74,76)        -59.9998         estimate D2E/DX2                !
 ! D180  D(70,73,74,77)       -179.9998         estimate D2E/DX2                !
 ! D181  D(73,74,77,78)         60.0001         estimate D2E/DX2                !
 ! D182  D(73,74,77,79)        -59.9999         estimate D2E/DX2                !
 ! D183  D(73,74,77,80)       -179.9999         estimate D2E/DX2                !
 ! D184  D(75,74,77,78)       -179.9999         estimate D2E/DX2                !
 ! D185  D(75,74,77,79)         60.0001         estimate D2E/DX2                !
 ! D186  D(75,74,77,80)        -59.9999         estimate D2E/DX2                !
 ! D187  D(76,74,77,78)        -59.9999         estimate D2E/DX2                !
 ! D188  D(76,74,77,79)       -179.9999         estimate D2E/DX2                !
 ! D189  D(76,74,77,80)         60.0001         estimate D2E/DX2                !
 ! D190  D(74,77,80,81)        179.9998         estimate D2E/DX2                !
 ! D191  D(78,77,80,81)        -60.0002         estimate D2E/DX2                !
 ! D192  D(79,77,80,81)         59.9998         estimate D2E/DX2                !
 ! D193  D(77,80,81,82)         60.0            estimate D2E/DX2                !
 ! D194  D(77,80,81,83)        -60.0            estimate D2E/DX2                !
 ! D195  D(77,80,81,84)       -180.0            estimate D2E/DX2                !
 ! D196  D(80,81,84,85)         60.0001         estimate D2E/DX2                !
 ! D197  D(80,81,84,86)        -59.9999         estimate D2E/DX2                !
 ! D198  D(80,81,84,87)       -179.9999         estimate D2E/DX2                !
 ! D199  D(82,81,84,85)       -179.9999         estimate D2E/DX2                !
 ! D200  D(82,81,84,86)         60.0001         estimate D2E/DX2                !
 ! D201  D(82,81,84,87)        -59.9999         estimate D2E/DX2                !
 ! D202  D(83,81,84,85)        -59.9999         estimate D2E/DX2                !
 ! D203  D(83,81,84,86)       -179.9999         estimate D2E/DX2                !
 ! D204  D(83,81,84,87)         60.0001         estimate D2E/DX2                !
 ! D205  D(81,84,87,88)       -179.9998         estimate D2E/DX2                !
 ! D206  D(85,84,87,88)        -59.9999         estimate D2E/DX2                !
 ! D207  D(86,84,87,88)         60.0002         estimate D2E/DX2                !
 ! D208  D(84,87,88,89)         60.0002         estimate D2E/DX2                !
 ! D209  D(84,87,88,90)        -59.9998         estimate D2E/DX2                !
 ! D210  D(84,87,88,91)       -179.9998         estimate D2E/DX2                !
 ! D211  D(87,88,91,92)         60.0            estimate D2E/DX2                !
 ! D212  D(87,88,91,93)        -60.0            estimate D2E/DX2                !
 ! D213  D(87,88,91,94)        180.0            estimate D2E/DX2                !
 ! D214  D(89,88,91,92)        180.0            estimate D2E/DX2                !
 ! D215  D(89,88,91,93)         60.0            estimate D2E/DX2                !
 ! D216  D(89,88,91,94)        -60.0            estimate D2E/DX2                !
 ! D217  D(90,88,91,92)        -60.0            estimate D2E/DX2                !
 ! D218  D(90,88,91,93)        180.0            estimate D2E/DX2                !
 ! D219  D(90,88,91,94)         60.0            estimate D2E/DX2                !
 ! D220  D(88,91,94,95)        179.9998         estimate D2E/DX2                !
 ! D221  D(92,91,94,95)        -60.0002         estimate D2E/DX2                !
 ! D222  D(93,91,94,95)         59.9998         estimate D2E/DX2                !
 --------------------------------------------------------------------------------
 Trust Radius=3.00D-01 FncErr=1.00D-07 GrdErr=1.00D-06 EigMax=2.50D+02 EigMin=1.00D-04
 Number of steps in this run=    503 maximum allowed number of steps=    570.
 GradGradGradGradGradGradGradGradGradGradGradGradGradGradGradGradGradGrad

 Leave Link  103 at Wed Sep 30 05:10:50 2020, MaxMem=  3221225472 cpu:               0.1 elap:               0.0
 (Enter /usr/local/Gaussian/gaussian-16-A03-avx2/g16/l202.exe)
 Stoichiometry    C28H58O9
 Framework group  C1[X(C28H58O9)]
 Deg. of freedom   279
 Full point group                 C1      NOp   1
 Largest Abelian subgroup         C1      NOp   1
 Largest concise Abelian subgroup C1      NOp   1
                         Standard orientation:                         
 ---------------------------------------------------------------------
 Center     Atomic      Atomic             Coordinates (Angstroms)
 Number     Number       Type             X           Y           Z
 ---------------------------------------------------------------------
      1          6           0        8.254447    0.457034    0.001872
      2          1           0        8.253901    1.074828    0.875503
      3          1           0        8.254893    1.074770   -0.871800
      4          6           0        9.511924   -0.431983    0.002616
      5          1           0        9.512455   -1.048334    0.877265
      6          1           0        9.511492   -1.051159   -0.870035
      7          6           0       10.769256    0.457236    0.000486
      8          1           0       10.769499    1.076678    0.872948
      9          1           0       10.768913    1.073321   -0.874351
     10          6           0       12.026733   -0.431781    0.001772
     11          1           0       12.026448   -1.051282   -0.870649
     12          1           0       12.027117   -1.047807    0.876650
     13          6           0       13.284065    0.457438   -0.000477
     14          1           0       13.284344    1.076945    0.871940
     15          1           0       13.283686    1.073457   -0.875359
     16          6           0       14.541542   -0.431579    0.000823
     17          1           0       14.541261   -1.051088   -0.871592
     18          1           0       14.541923   -1.047598    0.875707
     19          6           0       15.798874    0.457640   -0.001428
     20          1           0       15.799155    1.077147    0.870988
     21          1           0       15.798493    1.073659   -0.876311
     22          6           0       17.056351   -0.431377   -0.000131
     23          1           0       17.056070   -1.050883   -0.872548
     24          1           0       17.056732   -1.047398    0.874751
     25          6           0       18.313683    0.457842   -0.002380
     26          1           0       18.313964    1.077346    0.870038
     27          1           0       18.313302    1.073864   -0.877261
     28          6           0       19.571160   -0.431175   -0.001085
     29          1           0       19.570879   -1.050679   -0.873504
     30          1           0       19.571541   -1.047199    0.873795
     31          6           0       20.828492    0.458043   -0.003332
     32          1           0       20.828773    1.077546    0.869088
     33          1           0       20.828111    1.074068   -0.878211
     34          6           0       22.085969   -0.430973   -0.002039
     35          1           0       22.085688   -1.050475   -0.874460
     36          1           0       22.959570    0.186860   -0.003599
     37          1           0       22.086350   -1.046999    0.872839
     38          8           0        7.086924   -0.368671    0.001237
     39          6           0        5.918852    0.456259    0.001757
     40          1           0        5.918618    1.074751   -0.871379
     41          1           0        5.918367    1.073295    0.875923
     42          6           0        4.661967   -0.433594    0.000835
     43          1           0        4.662203   -1.052088    0.873970
     44          1           0        4.662451   -1.050629   -0.873332
     45          8           0        3.493895    0.391336    0.001357
     46          6           0        2.326372   -0.434369    0.000649
     47          1           0        2.326335   -1.052760    0.873858
     48          1           0        2.326509   -1.051508   -0.873445
     49          6           0        1.068896    0.454648    0.001159
     50          1           0        1.068933    1.073038   -0.872050
     51          1           0        1.068759    1.071788    0.875252
     52          8           0       -0.098628   -0.371057    0.000453
     53          6           0       -1.266699    0.453873    0.000975
     54          1           0       -1.266985    1.072295   -0.872211
     55          1           0       -1.267133    1.070980    0.875091
     56          6           0       -2.523585   -0.435980    0.000200
     57          1           0       -2.523298   -1.054400    0.873387
     58          1           0       -2.523150   -1.053088   -0.873915
     59          8           0       -3.691656    0.388950    0.000720
     60          6           0       -4.859180   -0.436755   -0.000007
     61          1           0       -4.859206   -1.055180    0.873177
     62          1           0       -4.859053   -1.053859   -0.874125
     63          6           0       -6.116656    0.452263    0.000554
     64          1           0       -6.116629    1.070687   -0.872631
     65          1           0       -6.116782    1.069368    0.874671
     66          8           0       -7.284179   -0.373442   -0.000171
     67          6           0       -8.452251    0.451487    0.000365
     68          1           0       -8.452539    1.069921   -0.872812
     69          1           0       -8.452683    1.068582    0.874490
     70          6           0       -9.709136   -0.438366   -0.000420
     71          1           0       -9.708848   -1.056799    0.872758
     72          1           0       -9.708703   -1.055461   -0.874544
     73          8           0      -10.877208    0.386564    0.000114
     74          6           0      -12.044731   -0.439141   -0.000606
     75          1           0      -12.044751   -1.057567    0.872577
     76          1           0      -12.044610   -1.056244   -0.874725
     77          6           0      -13.302207    0.449877   -0.000035
     78          1           0      -13.302187    1.068302   -0.873219
     79          1           0      -13.302328    1.066981    0.874083
     80          8           0      -14.469731   -0.375828   -0.000753
     81          6           0      -15.637802    0.449101   -0.000219
     82          1           0      -15.638094    1.067528   -0.873402
     83          1           0      -15.638231    1.066204    0.873900
     84          6           0      -16.894688   -0.440751   -0.000992
     85          1           0      -16.894396   -1.059177    0.872192
     86          1           0      -16.894259   -1.057855   -0.875110
     87          8           0      -18.062759    0.384178   -0.000460
     88          6           0      -19.230283   -0.441527   -0.001173
     89          1           0      -19.230301   -1.059948    0.872014
     90          1           0      -19.230164   -1.058635   -0.875288
     91          6           0      -20.487759    0.447491   -0.000604
     92          1           0      -20.487739    1.065913   -0.873791
     93          1           0      -20.487878    1.064599    0.873512
     94          8           0      -21.655282   -0.378214   -0.001318
     95          1           0      -22.439442    0.175585   -0.000961
 ---------------------------------------------------------------------
 Rotational constants (GHZ):           2.6039283           0.0056069           0.0056002
 Leave Link  202 at Wed Sep 30 05:10:50 2020, MaxMem=  3221225472 cpu:               0.0 elap:               0.0
 (Enter /usr/local/Gaussian/gaussian-16-A03-avx2/g16/l301.exe)
 Standard basis: 6-311+G(d,p) (5D, 7F)
 Ernie: Thresh=  0.10000D-02 Tol=  0.10000D-05 Strict=F.
 There are  1199 symmetry adapted cartesian basis functions of A   symmetry.
 There are  1162 symmetry adapted basis functions of A   symmetry.
  1162 basis functions,  1796 primitive gaussians,  1199 cartesian basis functions
   149 alpha electrons      149 beta electrons
       nuclear repulsion energy      3203.5013370365 Hartrees.
 IExCor=20419 DFT=T Ex+Corr=CAM-B3LYP ExCW=0 ScaHFX=  1.000000
 ScaDFX=  1.000000  1.000000  1.000000  0.810000 ScalE2=  1.000000  1.000000
 IRadAn=      5 IRanWt=     -1 IRanGd=            0 ICorTp=0 IEmpDi=  4
 HFx  wShort=  0.000000 wLong=  0.330000 cFull=  0.190000 cShort=  0.000000 cLong=  0.460000
 DFx  wShort=  0.000000 wLong=  0.330000 cFull=  0.190000 cShort=  0.000000 cLong=  0.460000
 NAtoms=   95 NActive=   95 NUniq=   95 SFac= 1.00D+00 NAtFMM=   60 NAOKFM=T Big=T
 Integral buffers will be    131072 words long.
 Raffenetti 2 integral format.
 Two-electron integral symmetry is turned on.
 Leave Link  301 at Wed Sep 30 05:10:50 2020, MaxMem=  3221225472 cpu:               0.3 elap:               0.1
 (Enter /usr/local/Gaussian/gaussian-16-A03-avx2/g16/linda-exe/l302.exel)
 NPDir=0 NMtPBC=     1 NCelOv=     1 NCel=       1 NClECP=     1 NCelD=      1
         NCelK=      1 NCelE2=     1 NClLst=     1 CellRange=     0.0.
 One-electron integrals computed using PRISM.
 One-electron integral symmetry used in STVInt
 NBasis=  1162 RedAO= T EigKep=  2.04D-06  NBF=  1162
 NBsUse=  1161 1.00D-06 EigRej=  9.00D-07 NBFU=  1161
 Precomputing XC quadrature grid using
 IXCGrd= 4 IRadAn=           5 IRanWt=          -1 IRanGd=           0 AccXCQ= 0.00D+00.
 Generated NRdTot=       0 NPtTot=           0 NUsed=           0 NTot=          32
 NSgBfM=   621   621   621   621   621 MxSgAt=    95 MxSgA2=    91.
 Leave Link  302 at Wed Sep 30 05:10:55 2020, MaxMem=  3221225472 cpu:              18.9 elap:               3.2
 (Enter /usr/local/Gaussian/gaussian-16-A03-avx2/g16/l303.exe)
 DipDrv:  MaxL=1.
 Leave Link  303 at Wed Sep 30 05:10:55 2020, MaxMem=  3221225472 cpu:               1.1 elap:               0.2
 (Enter /usr/local/Gaussian/gaussian-16-A03-avx2/g16/linda-exe/l401.exel)
 ExpMin= 4.38D-02 ExpMax= 8.59D+03 ExpMxC= 1.30D+03 IAcc=3 IRadAn=         5 AccDes= 0.00D+00
 Harris functional with IExCor=20419 and IRadAn=       5 diagonalized for initial guess.
 HarFok:  IExCor=20419 AccDes= 0.00D+00 IRadAn=         5 IDoV= 1 UseB2=F ITyADJ=14
 ICtDFT=  3500011 ScaDFX=  1.000000  1.000000  1.000000  1.000000
 FoFCou: FMM=F IPFlag=           0 FMFlag=      100000 FMFlg1=        2001
         NFxFlg=           0 DoJE=T BraDBF=F KetDBF=T FulRan=T
         wScrn=  0.000000 ICntrl=       500 IOpCl=  0 I1Cent=   200000004 NGrid=           0
         NMat0=    1 NMatS0=      1 NMatT0=    0 NMatD0=    1 NMtDS0=    0 NMtDT0=    0
 Petite list used in FoFCou.
 Harris En= -1708.84677465976    
 JPrj=0 DoOrth=F DoCkMO=F.
 Leave Link  401 at Wed Sep 30 05:11:03 2020, MaxMem=  3221225472 cpu:              43.8 elap:               7.3
 (Enter /usr/local/Gaussian/gaussian-16-A03-avx2/g16/linda-exe/l502.exel)
 Integral symmetry usage will be decided dynamically.
 Closed shell SCF:
 Using DIIS extrapolation, IDIIS=  1040.
 NGot=  3221225472 LenX=  3218331149 LenY=  3216892349
 Requested convergence on RMS density matrix=1.00D-08 within  32 cycles.
 Requested convergence on MAX density matrix=1.00D-06.
 Requested convergence on             energy=1.00D-06.
 No special actions if energy rises.
 Fock matrices will be formed incrementally for  20 cycles.

 Cycle   1  Pass 1  IDiag  1:
 FoFJK:  IHMeth= 1 ICntrl=       0 DoSepK=T KAlg= 0 I1Cent=           0 FoldK=F
 IRaf=         1 NMat=       1 IRICut=       1 DoRegI=T DoRafI=F ISym2E= 0 IDoP0=0 IntGTp=1.
 FoFCou: FMM=T IPFlag=           0 FMFlag=      100000 FMFlg1=        2001
         NFxFlg=           0 DoJE=T BraDBF=F KetDBF=F FulRan=T
         wScrn=  0.000000 ICntrl=       500 IOpCl=  0 I1Cent=           0 NGrid=           0
         NMat0=    1 NMatS0=      1 NMatT0=    0 NMatD0=    1 NMtDS0=    0 NMtDT0=    0
 Symmetry not used in FoFCou.
 FMM levels:  10  Number of levels for PrismC:   9
 E= -1777.87211216894    
 DIIS: error= 7.11D-02 at cycle   1 NSaved=   1.
 NSaved= 1 IEnMin= 1 EnMin= -1777.87211216894     IErMin= 1 ErrMin= 7.11D-02
 ErrMax= 7.11D-02  0.00D+00 EMaxC= 1.00D-01 BMatC= 3.01D+00 BMatP= 3.01D+00
 IDIUse=3 WtCom= 2.89D-01 WtEn= 7.11D-01
 Coeff-Com:  0.100D+01
 Coeff-En:   0.100D+01
 Coeff:      0.100D+01
 Gap=     0.467 Goal=   None    Shift=    0.000
 GapD=    0.467 DampG=2.000 DampE=0.500 DampFc=1.0000 IDamp=-1.
 RMSDP=2.14D-03 MaxDP=4.03D-01              OVMax= 9.79D-02

 Cycle   2  Pass 1  IDiag  1:
 RMSU=  2.01D-03    CP:  9.32D-01
 E= -1777.95853088520     Delta-E=       -0.086418716262 Rises=F Damp=F
 DIIS: error= 3.81D-02 at cycle   2 NSaved=   2.
 NSaved= 2 IEnMin= 2 EnMin= -1777.95853088520     IErMin= 2 ErrMin= 3.81D-02
 ErrMax= 3.81D-02  0.00D+00 EMaxC= 1.00D-01 BMatC= 7.24D-01 BMatP= 3.01D+00
 IDIUse=3 WtCom= 6.19D-01 WtEn= 3.81D-01
 Coeff-Com:  0.275D+00 0.725D+00
 Coeff-En:   0.449D+00 0.551D+00
 Coeff:      0.341D+00 0.659D+00
 Gap=     0.381 Goal=   None    Shift=    0.000
 RMSDP=1.72D-03 MaxDP=2.21D-01 DE=-8.64D-02 OVMax= 7.90D-02

 Cycle   3  Pass 1  IDiag  1:
 RMSU=  1.29D-03    CP:  1.02D+00  6.99D-01
 E= -1778.30235657406     Delta-E=       -0.343825688859 Rises=F Damp=F
 DIIS: error= 2.16D-02 at cycle   3 NSaved=   3.
 NSaved= 3 IEnMin= 3 EnMin= -1778.30235657406     IErMin= 3 ErrMin= 2.16D-02
 ErrMax= 2.16D-02  0.00D+00 EMaxC= 1.00D-01 BMatC= 1.89D-01 BMatP= 7.24D-01
 IDIUse=3 WtCom= 7.84D-01 WtEn= 2.16D-01
 Coeff-Com:  0.264D-01 0.342D+00 0.632D+00
 Coeff-En:   0.000D+00 0.210D+00 0.790D+00
 Coeff:      0.207D-01 0.313D+00 0.666D+00
 Gap=     0.367 Goal=   None    Shift=    0.000
 RMSDP=6.23D-04 MaxDP=5.79D-02 DE=-3.44D-01 OVMax= 3.32D-02

 Cycle   4  Pass 1  IDiag  1:
 RMSU=  4.69D-04    CP:  1.01D+00  8.27D-01  7.91D-01
 E= -1778.42133591828     Delta-E=       -0.118979344224 Rises=F Damp=F
 DIIS: error= 3.50D-03 at cycle   4 NSaved=   4.
 NSaved= 4 IEnMin= 4 EnMin= -1778.42133591828     IErMin= 4 ErrMin= 3.50D-03
 ErrMax= 3.50D-03  0.00D+00 EMaxC= 1.00D-01 BMatC= 6.57D-03 BMatP= 1.89D-01
 IDIUse=3 WtCom= 9.65D-01 WtEn= 3.50D-02
 Coeff-Com:  0.914D-02 0.118D+00 0.303D+00 0.569D+00
 Coeff-En:   0.000D+00 0.000D+00 0.000D+00 0.100D+01
 Coeff:      0.882D-02 0.114D+00 0.293D+00 0.584D+00
 Gap=     0.355 Goal=   None    Shift=    0.000
 RMSDP=1.12D-04 MaxDP=1.06D-02 DE=-1.19D-01 OVMax= 6.51D-03

 Cycle   5  Pass 1  IDiag  1:
 RMSU=  5.67D-05    CP:  1.01D+00  8.38D-01  8.25D-01  8.25D-01
 E= -1778.42573464388     Delta-E=       -0.004398725599 Rises=F Damp=F
 DIIS: error= 4.32D-04 at cycle   5 NSaved=   5.
 NSaved= 5 IEnMin= 5 EnMin= -1778.42573464388     IErMin= 5 ErrMin= 4.32D-04
 ErrMax= 4.32D-04  0.00D+00 EMaxC= 1.00D-01 BMatC= 7.89D-05 BMatP= 6.57D-03
 IDIUse=3 WtCom= 9.96D-01 WtEn= 4.32D-03
 Coeff-Com: -0.453D-03-0.467D-02 0.150D-01 0.143D+00 0.847D+00
 Coeff-En:   0.000D+00 0.000D+00 0.000D+00 0.000D+00 0.100D+01
 Coeff:     -0.451D-03-0.465D-02 0.150D-01 0.142D+00 0.848D+00
 Gap=     0.355 Goal=   None    Shift=    0.000
 RMSDP=6.29D-05 MaxDP=1.03D-02 DE=-4.40D-03 OVMax= 1.22D-03

 Cycle   6  Pass 1  IDiag  1:
 RMSU=  1.78D-05    CP:  1.01D+00  8.41D-01  8.54D-01  9.01D-01  1.02D+00
 E= -1778.42580409170     Delta-E=       -0.000069447813 Rises=F Damp=F
 DIIS: error= 2.09D-04 at cycle   6 NSaved=   6.
 NSaved= 6 IEnMin= 6 EnMin= -1778.42580409170     IErMin= 6 ErrMin= 2.09D-04
 ErrMax= 2.09D-04  0.00D+00 EMaxC= 1.00D-01 BMatC= 1.19D-05 BMatP= 7.89D-05
 IDIUse=3 WtCom= 9.98D-01 WtEn= 2.09D-03
 Coeff-Com: -0.559D-03-0.664D-02-0.431D-02 0.434D-01 0.387D+00 0.581D+00
 Coeff-En:   0.000D+00 0.000D+00 0.000D+00 0.000D+00 0.000D+00 0.100D+01
 Coeff:     -0.558D-03-0.663D-02-0.430D-02 0.434D-01 0.386D+00 0.582D+00
 Gap=     0.355 Goal=   None    Shift=    0.000
 RMSDP=1.31D-05 MaxDP=1.96D-03 DE=-6.94D-05 OVMax= 4.52D-04

 Cycle   7  Pass 1  IDiag  1:
 RMSU=  5.44D-06    CP:  1.01D+00  8.42D-01  8.58D-01  9.19D-01  1.09D+00
                    CP:  8.95D-01
 E= -1778.42581157564     Delta-E=       -0.000007483943 Rises=F Damp=F
 DIIS: error= 4.25D-05 at cycle   7 NSaved=   7.
 NSaved= 7 IEnMin= 7 EnMin= -1778.42581157564     IErMin= 7 ErrMin= 4.25D-05
 ErrMax= 4.25D-05  0.00D+00 EMaxC= 1.00D-01 BMatC= 1.16D-06 BMatP= 1.19D-05
 IDIUse=1 WtCom= 1.00D+00 WtEn= 0.00D+00
 Coeff-Com: -0.172D-03-0.236D-02-0.434D-02-0.221D-02 0.408D-01 0.252D+00
 Coeff-Com:  0.716D+00
 Coeff:     -0.172D-03-0.236D-02-0.434D-02-0.221D-02 0.408D-01 0.252D+00
 Coeff:      0.716D+00
 Gap=     0.355 Goal=   None    Shift=    0.000
 RMSDP=5.62D-06 MaxDP=8.67D-04 DE=-7.48D-06 OVMax= 1.94D-04

 Cycle   8  Pass 1  IDiag  1:
 RMSU=  1.76D-06    CP:  1.01D+00  8.43D-01  8.59D-01  9.28D-01  1.11D+00
                    CP:  9.68D-01  9.63D-01
 E= -1778.42581244729     Delta-E=       -0.000000871648 Rises=F Damp=F
 DIIS: error= 4.56D-06 at cycle   8 NSaved=   8.
 NSaved= 8 IEnMin= 8 EnMin= -1778.42581244729     IErMin= 8 ErrMin= 4.56D-06
 ErrMax= 4.56D-06  0.00D+00 EMaxC= 1.00D-01 BMatC= 3.83D-08 BMatP= 1.16D-06
 IDIUse=1 WtCom= 1.00D+00 WtEn= 0.00D+00
 Coeff-Com: -0.141D-04-0.286D-03-0.102D-02-0.340D-02-0.144D-01 0.300D-01
 Coeff-Com:  0.198D+00 0.791D+00
[...]
 Alpha virt. eigenvalues --   23.89596  23.91630  23.91783  23.91825  23.91855
 Alpha virt. eigenvalues --   23.91942  23.92105  23.92253  23.93149  23.93247
 Alpha virt. eigenvalues --   23.93846  23.94316  23.94809  23.94966  23.95156
 Alpha virt. eigenvalues --   23.95224  23.95444  23.95836  23.96247  23.96367
 Alpha virt. eigenvalues --   23.96637  23.97166  23.97705  23.98307  23.99458
 Alpha virt. eigenvalues --   24.00064  24.00434  24.04554  49.94376  49.95671
 Alpha virt. eigenvalues --   49.96996  49.98341  49.99588  50.00587  50.01089
 Alpha virt. eigenvalues --   50.01260  50.01490
          Condensed to atoms (all electrons):
 Mulliken charges:
               1
     1  C   -0.336673
     2  H    0.133359
     3  H    0.133371
     4  C   -0.337514
     5  H    0.150913
     6  H    0.150918
     7  C   -0.155623
     8  H    0.142511
     9  H    0.142511
    10  C   -0.266334
    11  H    0.145655
    12  H    0.145655
    13  C   -0.418048
    14  H    0.143694
    15  H    0.143694
    16  C   -0.318022
    17  H    0.143666
    18  H    0.143665
    19  C   -0.240915
    20  H    0.142777
    21  H    0.142777
    22  C   -0.160038
    23  H    0.143278
    24  H    0.143278
    25  C   -0.169774
    26  H    0.141667
    27  H    0.141667
    28  C   -0.346383
    29  H    0.139551
    30  H    0.139551
    31  C   -0.242190
    32  H    0.136287
    33  H    0.136287
    34  C   -0.598600
    35  H    0.132723
    36  H    0.138972
    37  H    0.132723
    38  O   -0.172265
    39  C   -0.045290
    40  H    0.135547
    41  H    0.135564
    42  C   -0.195164
    43  H    0.139897
    44  H    0.139902
    45  O   -0.184502
    46  C   -0.164495
    47  H    0.139434
    48  H    0.139427
    49  C   -0.217884
    50  H    0.139995
    51  H    0.139995
    52  O   -0.187645
    53  C   -0.154396
    54  H    0.139514
    55  H    0.139515
    56  C   -0.199979
    57  H    0.140192
    58  H    0.140193
    59  O   -0.188415
    60  C   -0.173746
    61  H    0.139997
    62  H    0.139996
    63  C   -0.201698
    64  H    0.140203
    65  H    0.140204
    66  O   -0.189765
    67  C   -0.168946
    68  H    0.139864
    69  H    0.139864
    70  C   -0.202142
    71  H    0.140343
    72  H    0.140343
    73  O   -0.191479
    74  C   -0.165200
    75  H    0.139938
    76  H    0.139937
    77  C   -0.208033
    78  H    0.140432
    79  H    0.140432
    80  O   -0.193175
    81  C   -0.148635
    82  H    0.139508
    83  H    0.139508
    84  C   -0.242958
    85  H    0.141652
    86  H    0.141652
    87  O   -0.197806
    88  C   -0.199025
    89  H    0.140625
    90  H    0.140625
    91  C   -0.145717
    92  H    0.140747
    93  H    0.140747
    94  O   -0.327136
    95  H    0.248665
 Sum of Mulliken charges =  -0.00000
 Mulliken charges with hydrogens summed into heavy atoms:
               1
     1  C   -0.069943
     4  C   -0.035683
     7  C    0.129400
    10  C    0.024976
    13  C   -0.130660
    16  C   -0.030691
    19  C    0.044638
    22  C    0.126518
    25  C    0.113561
    28  C   -0.067280
    31  C    0.030384
    34  C   -0.194181
    38  O   -0.172265
    39  C    0.225821
    42  C    0.084635
    45  O   -0.184502
    46  C    0.114367
    49  C    0.062106
    52  O   -0.187645
    53  C    0.124633
    56  C    0.080406
    59  O   -0.188415
    60  C    0.106247
    63  C    0.078710
    66  O   -0.189765
    67  C    0.110781
    70  C    0.078544
    73  O   -0.191479
    74  C    0.114675
    77  C    0.072832
    80  O   -0.193175
    81  C    0.130381
    84  C    0.040346
    87  O   -0.197806
    88  C    0.082225
    91  C    0.135777
    94  O   -0.078472
 Electronic spatial extent (au):  <R**2>=         177432.9734
 Charge=              0.0000 electrons
 Dipole moment (field-independent basis, Debye):
    X=              0.3078    Y=              1.6835    Z=              0.0001  Tot=              1.7114
 Quadrupole moment (field-independent basis, Debye-Ang):
   XX=           -207.1688   YY=           -241.2317   ZZ=           -232.5857
   XY=            -18.8847   XZ=             -0.0017   YZ=             -0.0003
 Traceless Quadrupole moment (field-independent basis, Debye-Ang):
   XX=             19.8266   YY=            -14.2363   ZZ=             -5.5903
   XY=            -18.8847   XZ=             -0.0017   YZ=             -0.0003
 Octapole moment (field-independent basis, Debye-Ang**2):
  XXX=           -916.7330  YYY=              1.5060  ZZZ=             -0.0001  XYY=            -97.5629
  XXY=            639.4917  XXZ=              0.0403  XZZ=            -97.4057  YZZ=              0.5687
  YYZ=             -0.0003  XYZ=              0.0096
 Hexadecapole moment (field-independent basis, Debye-Ang**3):
 XXXX=        -219808.7206 YYYY=           -885.7577 ZZZZ=           -446.8165 XXXY=         -11909.1539
 XXXZ=             -1.0505 YYYX=             33.9714 YYYZ=             -0.0003 ZZZX=             -0.0072
 ZZZY=              0.0002 XXYY=         -40915.6239 XXZZ=         -39295.7983 YYZZ=           -201.3647
 XXYZ=              0.0337 YYXZ=             -0.0074 ZZXY=              2.4578
 N-N= 3.226082632475D+03 E-N=-1.060476757643D+04  KE= 1.772204764375D+03
 No NMR shielding tensors so no spin-rotation constants.
 Leave Link  601 at Wed Sep 30 05:51:32 2020, MaxMem=  3221225472 cpu:               4.5 elap:               0.9
 (Enter /usr/local/Gaussian/gaussian-16-A03-avx2/g16/linda-exe/l602.exel)
 FitSet:  NAtFit=    95 NAtPot=    95 NAtFrz=     0 MDM=    99 TotChg=   0.00000
 Breneman (CHELPG) radii used.
 Generate Potential Derived Charges using the Breneman model, NDens= 1.
 Grid spacing= 0.300 Box extension= 2.800
 NStep X,Y,Z=  170     30     26   Total possible points=      132600
 Number of Points to Fit=   52146

 **********************************************************************

            Electrostatic Properties Using The SCF Density

 **********************************************************************

       Atomic Center    1 is at   8.068920  0.746438 -0.000104
       Atomic Center    4 is at   9.281479 -0.160583 -0.000020
       Atomic Center    7 is at  10.595071  0.615331 -0.000092
       Atomic Center   10 is at  11.824609 -0.288177  0.000036
       Atomic Center   13 is at  13.142337  0.480428 -0.000072
       Atomic Center   16 is at  14.372264 -0.422246  0.000067
       Atomic Center   19 is at  15.690563  0.345612 -0.000045
       Atomic Center   22 is at  16.920466 -0.557100  0.000087
       Atomic Center   25 is at  18.239007  0.210406 -0.000025
       Atomic Center   28 is at  19.468826 -0.692138  0.000104
       Atomic Center   31 is at  20.788204  0.074314 -0.000008
       Atomic Center   34 is at  22.010391 -0.837635  0.000122
       Atomic Center   38 is at   6.899974 -0.045651 -0.000128
       Atomic Center   39 is at   5.712972  0.710131  0.000014
       Atomic Center   42 is at   4.551371 -0.258429 -0.000165
       Atomic Center   45 is at   3.361392  0.496840 -0.000000
       Atomic Center   46 is at   2.197098 -0.295494 -0.000096
       Atomic Center   49 is at   1.007015  0.637710  0.000043
       Atomic Center   52 is at  -0.158298 -0.154134 -0.000040
       Atomic Center   53 is at  -1.347161  0.601237  0.000071
       Atomic Center   56 is at  -2.507184 -0.369050 -0.000039
       Atomic Center   59 is at  -3.696486  0.386123  0.000062
       Atomic Center   60 is at  -4.861333 -0.405997 -0.000023
       Atomic Center   63 is at  -6.051051  0.527632  0.000083
       Atomic Center   66 is at  -7.216051 -0.264368  0.000003
       Atomic Center   67 is at  -8.405201  0.490814  0.000082
       Atomic Center   70 is at  -9.565080 -0.479634 -0.000014
       Atomic Center   73 is at -10.754244  0.275576  0.000057
       Atomic Center   74 is at -11.919234 -0.516490 -0.000016
       Atomic Center   77 is at -13.108929  0.417161  0.000061
       Atomic Center   80 is at -14.273786 -0.374822 -0.000007
       Atomic Center   81 is at -15.462976  0.380368  0.000050
       Atomic Center   84 is at -16.623277 -0.589531 -0.000030
       Atomic Center   87 is at -17.811701  0.166539  0.000024
       Atomic Center   88 is at -18.977592 -0.624425 -0.000040
       Atomic Center   91 is at -20.168337  0.307293  0.000025
       Atomic Center   94 is at -21.329194 -0.508832 -0.000040
       Atomic Center   95 is at -22.109726  0.048648 -0.000000
   52146 points will be used for fitting atomic charges
 Fitting point charges to electrostatic potential
 Charges from ESP fit, RMS=   0.00285 RRMS=   0.32690:
 ESP charges:
               1
     1  C    0.394910
     2  H   -0.047199
     3  H   -0.047150
     4  C    0.075782
     5  H   -0.006184
     6  H   -0.006191
     7  C   -0.083585
     8  H   -0.008343
     9  H   -0.008344
    10  C    0.148393
    11  H   -0.039988
    12  H   -0.039982
    13  C    0.037081
    14  H   -0.015472
    15  H   -0.015460
    16  C   -0.025997
    17  H   -0.009917
    18  H   -0.009919
    19  C    0.091934
    20  H   -0.031946
    21  H   -0.031947
    22  C    0.094269
    23  H   -0.029842
    24  H   -0.029830
    25  C   -0.060962
    26  H   -0.001837
    27  H   -0.001809
    28  C    0.040957
    29  H   -0.017079
    30  H   -0.017084
    31  C    0.208174
    32  H   -0.047738
    33  H   -0.047778
    34  C   -0.210200
    35  H    0.037933
    36  H    0.044587
    37  H    0.037920
    38  O   -0.643989
    39  C    0.388039
    40  H   -0.029181
    41  H   -0.029133
    42  C    0.412068
    43  H   -0.035135
    44  H   -0.035093
    45  O   -0.699013
    46  C    0.420857
    47  H   -0.032101
    48  H   -0.032105
    49  C    0.410619
    50  H   -0.031912
    51  H   -0.031915
    52  O   -0.710026
    53  C    0.438830
    54  H   -0.038542
    55  H   -0.038524
    56  C    0.423696
    57  H   -0.035912
    58  H   -0.035900
    59  O   -0.714543
    60  C    0.436002
    61  H   -0.037345
    62  H   -0.037332
    63  C    0.429233
    64  H   -0.036808
    65  H   -0.036798
    66  O   -0.720460
    67  C    0.447636
    68  H   -0.040684
    69  H   -0.040680
    70  C    0.424602
    71  H   -0.035933
    72  H   -0.035926
    73  O   -0.716838
    74  C    0.449964
    75  H   -0.041907
    76  H   -0.041904
    77  C    0.419284
    78  H   -0.037231
    79  H   -0.037227
    80  O   -0.713156
    81  C    0.477124
    82  H   -0.046607
    83  H   -0.046606
    84  C    0.380624
    85  H   -0.031963
    86  H   -0.031948
    87  O   -0.714114
    88  C    0.512870
    89  H   -0.043101
    90  H   -0.043104
    91  C    0.319349
    92  H   -0.020490
    93  H   -0.020477
    94  O   -0.778600
    95  H    0.449316
 Sum of ESP charges =  -0.00000
 ESP charges with hydrogens summed into heavy atoms:
               1
     1  C    0.300561
     4  C    0.063406
     7  C   -0.100273
    10  C    0.068423
    13  C    0.006148
    16  C   -0.045833
    19  C    0.028040
    22  C    0.034597
    25  C   -0.064609
    28  C    0.006793
    31  C    0.112658
    34  C   -0.089761
    38  O   -0.643989
    39  C    0.329724
    42  C    0.341839
    45  O   -0.699013
    46  C    0.356650
    49  C    0.346792
    52  O   -0.710026
    53  C    0.361764
    56  C    0.351884
    59  O   -0.714543
    60  C    0.361325
    63  C    0.355626
    66  O   -0.720460
    67  C    0.366272
    70  C    0.352744
    73  O   -0.716838
    74  C    0.366153
    77  C    0.344826
    80  O   -0.713156
    81  C    0.383911
    84  C    0.316714
    87  O   -0.714114
    88  C    0.426664
    91  C    0.278381
    94  O   -0.329284
 Charge=  -0.00000 Dipole=     0.2763     1.6678    -0.0000 Tot=     1.6905
 -----------------------------------------------------------------

              Electrostatic Properties (Atomic Units)

 -----------------------------------------------------------------
    Center     Electric         -------- Electric Field --------
               Potential          X             Y             Z
 -----------------------------------------------------------------
    1 Atom    -14.728622
    2 Atom     -1.119223
    3 Atom     -1.119225
    4 Atom    -14.781673
    5 Atom     -1.126942
    6 Atom     -1.126942
    7 Atom    -14.778435
    8 Atom     -1.125949
    9 Atom     -1.125949
   10 Atom    -14.782061
   11 Atom     -1.129178
   12 Atom     -1.129178
   13 Atom    -14.783387
   14 Atom     -1.129971
   15 Atom     -1.129972
   16 Atom    -14.784277
   17 Atom     -1.130938
   18 Atom     -1.130938
   19 Atom    -14.784727
   20 Atom     -1.131337
   21 Atom     -1.131337
   22 Atom    -14.785072
   23 Atom     -1.131714
   24 Atom     -1.131714
   25 Atom    -14.785260
   26 Atom     -1.131778
   27 Atom     -1.131778
   28 Atom    -14.785614
   29 Atom     -1.131891
   30 Atom     -1.131891
   31 Atom    -14.782887
   32 Atom     -1.132283
   33 Atom     -1.132283
   34 Atom    -14.790076
   35 Atom     -1.126576
   36 Atom     -1.125983
   37 Atom     -1.126576
   38 Atom    -22.367437
   39 Atom    -14.728454
   40 Atom     -1.118087
   41 Atom     -1.118088
   42 Atom    -14.727053
   43 Atom     -1.116977
   44 Atom     -1.116977
   45 Atom    -22.361784
   46 Atom    -14.725537
   47 Atom     -1.115564
   48 Atom     -1.115563
   49 Atom    -14.725017
   50 Atom     -1.114970
   51 Atom     -1.114970
   52 Atom    -22.360348
   53 Atom    -14.724478
   54 Atom     -1.114485
   55 Atom     -1.114485
   56 Atom    -14.724348
   57 Atom     -1.114335
   58 Atom     -1.114335
   59 Atom    -22.359825
   60 Atom    -14.724133
   61 Atom     -1.114137
   62 Atom     -1.114137
   63 Atom    -14.724047
   64 Atom     -1.114036
   65 Atom     -1.114037
   66 Atom    -22.359627
   67 Atom    -14.723982
   68 Atom     -1.113975
   69 Atom     -1.113975
   70 Atom    -14.724014
   71 Atom     -1.114008
   72 Atom     -1.114008
   73 Atom    -22.359622
   74 Atom    -14.724067
   75 Atom     -1.114061
   76 Atom     -1.114060
   77 Atom    -14.724077
   78 Atom     -1.114057
   79 Atom     -1.114057
   80 Atom    -22.359807
   81 Atom    -14.724290
   82 Atom     -1.114232
   83 Atom     -1.114232
   84 Atom    -14.724702
   85 Atom     -1.114663
   86 Atom     -1.114663
   87 Atom    -22.360493
   88 Atom    -14.725896
   89 Atom     -1.115542
   90 Atom     -1.115542
   91 Atom    -14.723285
   92 Atom     -1.115101
   93 Atom     -1.115101
   94 Atom    -22.362925
   95 Atom     -0.992140
 -----------------------------------------------------------------
 Leave Link  602 at Wed Sep 30 05:51:38 2020, MaxMem=  3221225472 cpu:              29.6 elap:               5.0
 (Enter /usr/local/Gaussian/gaussian-16-A03-avx2/g16/l9999.exe)
 1\1\GINC-NODE-025\SP\RCAM-B3LYP\6-311+G(d,p)\C28H58O9\ROOT\30-Sep-2020
 \0\\#P CAM-B3LYP/6-311+G** Guess=Read Geom=Check Pop=CHelpG\\C12E8 cha
 rge distribution\\0,1\C,0,-3.4013684951,-0.9995973629,-0.1764153077\H,
 0,-3.0539589464,-2.0434306064,-0.1693895432\H,0,-4.5013128319,-1.02005
 87452,-0.1703319585\C,0,-2.8791401677,-0.2598850812,1.0372939325\H,0,-
 1.7863441048,-0.2349635474,0.9869243324\H,0,-3.2198182838,0.778700394,
 0.9859049025\C,0,-3.3287137825,-0.8943271287,2.3498994109\H,0,-2.99301
 90626,-1.9374757121,2.3868646643\H,0,-4.4241382742,-0.9253993406,2.385
 8775691\C,0,-2.8084981045,-0.1575208489,3.5805828129\H,0,-3.1434339425
 ,0.8857383452,3.5452352101\H,0,-1.713221182,-0.1257384454,3.5462455158
 \C,0,-3.2538855512,-0.7859769438,4.8973344591\H,0,-2.9190275273,-1.829
 5842094,4.9318665099\H,0,-4.3494642455,-0.8179346894,4.930862234\C,0,-
 2.7341444355,-0.0498578305,6.1284053227\H,0,-3.0688530519,0.9937500266
 ,6.0938507805\H,0,-1.6386146139,-0.0177615509,6.0948581668\C,0,-3.1791
 045677,-0.67770185,7.4457285754\H,0,-2.8443700488,-1.7213492752,7.4803
 059465\H,0,-4.2746803424,-0.7097929229,7.4792950692\C,0,-2.6593458654,
 0.0584523337,8.6767764745\H,0,-2.9940196689,1.1020936836,8.6421706012\
 H,0,-1.5637961039,0.0906004095,8.6431815907\C,0,-3.104103017,-0.569104
 8747,9.9943419286\H,0,-2.7693872253,-1.6127742356,10.0290409458\H,0,-4
 .1996932585,-0.6012255569,10.0280280205\C,0,-2.5844441156,0.1669134641
 ,11.2253052768\H,0,-2.9189548451,1.2108148614,11.1917351799\H,0,-1.488
 7044938,0.1993059334,11.192748322\C,0,-3.0285940881,-0.4597837049,12.5
 437089914\H,0,-2.6938404456,-1.5023868483,12.5774124999\H,0,-4.1231906
 953,-0.4915146379,12.5763997351\C,0,-2.5034952655,0.2839198998,13.7670
 524448\H,0,-2.8502598187,1.3208420672,13.7764488077\H,0,-2.8360873327,
 -0.1854271465,14.6955213611\H,0,-1.4102939011,0.3024621119,13.77746949
 67\O,0,-2.942710881,-0.3519946293,-1.3443546878\C,0,-3.3774748269,-0.9
 683635822,-2.5323149759\H,0,-4.4742226039,-0.9819144984,-2.5878277781\
 H,0,-3.0240946979,-2.0067633625,-2.5867954407\C,0,-2.8170765631,-0.176
 5816321,-3.6926859515\H,0,-1.720800878,-0.1638658958,-3.6390041112\H,0
 ,-3.1711123279,0.8610849445,-3.640053495\O,0,-3.2515221308,-0.79254257
 86,-4.8836225796\C,0,-2.7927875041,-0.1447006069,-6.0469093846\H,0,-1.
 6955406477,-0.1308339778,-6.0784394826\H,0,-3.1458529534,0.8942512428,
 -6.0794849639\C,0,-3.3299751165,-0.9059372972,-7.2381754465\H,0,-4.427
 1687598,-0.9195917204,-7.2068153756\H,0,-2.9767449298,-1.944773962,-7.
 2057610897\O,0,-2.8715120952,-0.2585029125,-8.402482879\C,0,-3.3060618
 324,-0.8745166773,-9.5923027576\H,0,-4.402400086,-0.8870614564,-9.6466
 450328\H,0,-2.9519918511,-1.912236392,-9.6455963508\C,0,-2.7446121755,
 -0.0813655774,-10.7510931796\H,0,-1.6483144349,-0.0688911273,-10.69679
 68189\H,0,-3.098725914,0.9562949843,-10.6978351837\O,0,-3.1790553263,-
 0.6972122824,-11.9413522728\C,0,-2.7204335622,-0.0495513348,-13.105193
 0557\H,0,-1.6232429578,-0.0359070066,-13.1367145488\H,0,-3.07363464,0.
 9892924185,-13.1377452213\C,0,-3.2578947588,-0.8111162269,-14.29609486
 78\H,0,-4.3550831707,-0.8247276682,-14.264570246\H,0,-2.9046701905,-1.
 849949148,-14.2635363653\O,0,-2.7993382635,-0.1635557829,-15.460088479
 9\C,0,-3.2338055415,-0.7793970685,-16.6501960889\H,0,-4.3301196447,-0.
 7918524637,-16.7045491241\H,0,-2.8797150218,-1.8170822423,-16.70351930
 14\C,0,-2.672251277,0.0138778589,-17.8088417622\H,0,-1.5759489742,0.02
 63272327,-17.7544970517\H,0,-3.0263358163,1.0515521354,-17.7555192627\
 O,0,-3.1067412273,-0.6019823696,-18.9989631404\C,0,-2.6481410683,0.045
 6274432,-20.1629466062\H,0,-1.5509648784,0.0592191059,-20.1944758225\H
 ,0,-3.0013380227,1.0844570158,-20.1954957921\C,0,-3.1856379509,-0.7159
 378105,-21.3538260404\H,0,-4.282844189,-0.7295485085,-21.3222330407\H,
 0,-2.8324540767,-1.7548036537,-21.3212098563\O,0,-2.7270826457,-0.0683
 982254,-22.5176767677\C,0,-3.1615714435,-0.6842338325,-23.7078244614\H
 ,0,-4.2579173765,-0.6966731119,-23.7619413257\H,0,-2.8074984303,-1.721
 9577704,-23.7609195593\C,0,-2.6003213036,0.1085840306,-24.8668928275\H
 ,0,-1.5040159605,0.1211167866,-24.8128762009\H,0,-2.9542890212,1.14630
 18672,-24.8138946488\O,0,-3.0353214402,-0.507968441,-26.0562752032\C,0
 ,-2.5773492991,0.1387365598,-27.221160964\H,0,-1.4801524218,0.15234505
 88,-27.2540201732\H,0,-2.9305100311,1.1775992621,-27.2550386285\C,0,-3
 .1137398924,-0.6212429031,-28.4130874886\H,0,-4.2084281509,-0.63015893
 26,-28.3739597463\H,0,-2.7569993641,-1.6561715004,-28.3729396698\O,0,-
 2.6412486598,0.0460046408,-29.572907969\H,0,-2.9621073839,-0.408671245
 2,-30.3541462459\\Version=ES64L-G16RevA.03\State=1-A\HF=-1778.4730952\
 RMSD=3.021e-09\Dipole=-0.3824827,-0.5409189,0.1202763\Quadrupole=-6.31
 78577,-8.458337,14.7761946,-3.0494773,8.0768827,11.4451706\PG=C01 [X(C
 28H58O9)]\\@


 DEFINE YOUR TERMS, YOU WILL PERMIT ME AGAIN TO SAY, 
 OR WE SHALL NEVER UNDERSTAND ONE ANOTHER.

                                    -- VOLTAIRE
 Job cpu time:       0 days  0 hours  0 minutes  8.6 seconds.
 Elapsed time:       0 days  0 hours  0 minutes 49.8 seconds.
 File lengths (MBytes):  RWF=    693 Int=      0 D2E=      0 Chk=    101 Scr=      1
 Normal termination of Gaussian 16 at Wed Sep 30 05:51:38 2020.
