 Set GAUSS_PDEF to "6".
 Set GAUSS_MDEF to "24576MB".
 Set GAUSS_WDEF to "node-027:1,node-028:1".
 Set GAUSS_SDEF to "ssh".
 Entering Gaussian System, Link 0=g16
 Initial command:
 /usr/local/Gaussian/gaussian-16-A03-avx2/g16/l1.exe "/tmp/168288.bcm-head.cm.cluster/Gau-14773.inp" -scrdir="/tmp/168288.bcm-head.cm.cluster/"
 Default linda workers: node-027:1,node-028:1
 Default is to use   6 SMP processors on each worker.
 Entering Link 1 = /usr/local/Gaussian/gaussian-16-A03-avx2/g16/l1.exe PID=     14774.
  
 Copyright (c) 1988,1990,1992,1993,1995,1998,2003,2009,2016,
            Gaussian, Inc.  All Rights Reserved.
  
 This is part of the Gaussian(R) 16 program.  It is based on
 the Gaussian(R) 09 system (copyright 2009, Gaussian, Inc.),
 the Gaussian(R) 03 system (copyright 2003, Gaussian, Inc.),
 the Gaussian(R) 98 system (copyright 1998, Gaussian, Inc.),
 the Gaussian(R) 94 system (copyright 1995, Gaussian, Inc.),
 the Gaussian 92(TM) system (copyright 1992, Gaussian, Inc.),
 the Gaussian 90(TM) system (copyright 1990, Gaussian, Inc.),
 the Gaussian 88(TM) system (copyright 1988, Gaussian, Inc.),
 the Gaussian 86(TM) system (copyright 1986, Carnegie Mellon
 University), and the Gaussian 82(TM) system (copyright 1983,
 Carnegie Mellon University). Gaussian is a federally registered
 trademark of Gaussian, Inc.
  
 This software contains proprietary and confidential information,
 including trade secrets, belonging to Gaussian, Inc.
  
 This software is provided under written license and may be
 used, copied, transmitted, or stored only in accord with that
 written license.
  
 The following legend is applicable only to US Government
 contracts under FAR:
  
                    RESTRICTED RIGHTS LEGEND
  
 Use, reproduction and disclosure by the US Government is
 subject to restrictions as set forth in subparagraphs (a)
 and (c) of the Commercial Computer Software - Restricted
 Rights clause in FAR 52.227-19.
  
 Gaussian, Inc.
 340 Quinnipiac St., Bldg. 40, Wallingford CT 06492
  
  
 ---------------------------------------------------------------
 Warning -- This program may not be used in any manner that
 competes with the business of Gaussian, Inc. or will provide
 assistance to any competitor of Gaussian, Inc.  The licensee
 of this program is prohibited from giving any competitor of
 Gaussian, Inc. access to this program.  By using this program,
 the user acknowledges that Gaussian, Inc. is engaged in the
 business of creating and licensing software in the field of
 computational chemistry and represents and warrants to the
 licensee that it is not a competitor of Gaussian, Inc. and that
 it will not use this program in any manner prohibited above.
 ---------------------------------------------------------------
  

 Cite this work as:
 Gaussian 16, Revision A.03,
 M. J. Frisch, G. W. Trucks, H. B. Schlegel, G. E. Scuseria, 
 M. A. Robb, J. R. Cheeseman, G. Scalmani, V. Barone, 
 G. A. Petersson, H. Nakatsuji, X. Li, M. Caricato, A. V. Marenich, 
 J. Bloino, B. G. Janesko, R. Gomperts, B. Mennucci, H. P. Hratchian, 
 J. V. Ortiz, A. F. Izmaylov, J. L. Sonnenberg, D. Williams-Young, 
 F. Ding, F. Lipparini, F. Egidi, J. Goings, B. Peng, A. Petrone, 
 T. Henderson, D. Ranasinghe, V. G. Zakrzewski, J. Gao, N. Rega, 
 G. Zheng, W. Liang, M. Hada, M. Ehara, K. Toyota, R. Fukuda, 
 J. Hasegawa, M. Ishida, T. Nakajima, Y. Honda, O. Kitao, H. Nakai, 
 T. Vreven, K. Throssell, J. A. Montgomery, Jr., J. E. Peralta, 
 F. Ogliaro, M. J. Bearpark, J. J. Heyd, E. N. Brothers, K. N. Kudin, 
 V. N. Staroverov, T. A. Keith, R. Kobayashi, J. Normand, 
 K. Raghavachari, A. P. Rendell, J. C. Burant, S. S. Iyengar, 
 J. Tomasi, M. Cossi, J. M. Millam, M. Klene, C. Adamo, R. Cammi, 
 J. W. Ochterski, R. L. Martin, K. Morokuma, O. Farkas, 
 J. B. Foresman, and D. J. Fox, Gaussian, Inc., Wallingford CT, 2016.
 
 ******************************************
 Gaussian 16:  ES64L-G16RevA.03 25-Dec-2016
                30-Sep-2020 
 ******************************************
 %chk=C17H35COO
 SetLPE:  input flags="-env GAUSS_SCRDIR=/tmp/168288.bcm-head.cm.cluster "
 SetLPE:    new flags="-env GAUSS_SCRDIR=/tmp/168288.bcm-head.cm.cluster -opt 'Tsnet.Node.lindarsharg: ssh'  -nodelist 'node-027.hpc.cc.spbu.ru node-028.hpc.cc.spbu.ru' -env GAUSS_MDEF=3221225472 -env GAUSS_EXEDIR="/usr/local/Gaussian/gaussian-16-A03-avx2/g16/bsd:/usr/local/Gaussian/gaussian-16-A03-avx2/g16""
 Will use up to    2 processors via Linda.
 Default route: Maxdisk=213GB Cachesize=163840
 ----------------------------------
 #P CAM-B3LYP/6-311+G** Opt SCF=XQC
 ----------------------------------
 1/4=163840,18=20,19=15,26=3,38=1/1,3;
 2/4=163840,9=110,12=2,17=6,18=5,40=1/2;
 3/4=163840,5=4,6=6,7=111,11=2,25=1,30=1,71=1,74=-40/1,2,3;
 4/4=163840/1;
 5/4=163840,5=2,8=3,13=1,38=5/2,8;
 6/4=163840,7=2,8=2,9=2,10=2,28=1/1;
 7/4=163840/1,2,3,16;
 1/4=163840,18=20,19=15,26=3/3(2);
 2/4=163840,9=110/2;
 99/4=163840/99;
 2/4=163840,9=110/2;
 3/4=163840,5=4,6=6,7=111,11=2,25=1,30=1,71=1,74=-40/1,2,3;
 4/4=163840,5=5,16=3,69=1/1;
 5/4=163840,5=2,8=3,13=1,38=5/2,8;
 7/4=163840/1,2,3,16;
 1/4=163840,18=20,19=15,26=3/3(-5);
 2/4=163840,9=110/2;
 6/4=163840,7=2,8=2,9=2,10=2,19=2,28=1/1;
 99/4=163840,9=1/99;
 Leave Link    1 at Wed Sep 30 05:10:57 2020, MaxMem=           0 cpu:               0.8 elap:               0.2
 (Enter /usr/local/Gaussian/gaussian-16-A03-avx2/g16/l101.exe)
 -------------------------------
 C17H35COO geometry optimization
 -------------------------------
 Symbolic Z-matrix:
 Charge = -1 Multiplicity = 1
 C                    -0.9205   -0.79916   0. 
 O                    -0.29346   0.29189  -0.00212 
 O                    -0.20796  -2.03899   0.0024 
 C                    -2.4605   -0.79916   0. 
 H                    -2.81717  -1.30524  -0.87268 
 H                    -2.81717   0.20964  -0.00194 
 C                    -2.97384  -1.52271   1.2588 
 H                    -2.8527   -2.57888   1.13746 
 H                    -2.41571  -1.19526   2.11096 
 C                    -4.4648   -1.19744   1.46576 
 H                    -5.0109   -1.44881   0.58061 
 H                    -4.57706  -0.15305   1.66957 
 C                    -5.00821  -2.01353   2.65332 
 H                    -4.90893  -3.05804   2.44348 
 H                    -4.45276  -1.77261   3.53556 
 C                    -6.49392  -1.67304   2.87314 
 H                    -6.59249  -0.62984   3.08976 
 H                    -7.04825  -1.90755   1.98848 
 C                    -7.03994  -2.49645   4.05444 
 H                    -6.94193  -3.53965   3.83755 
 H                    -6.4852   -2.2624    4.93896 
 C                    -8.52542  -2.15531   4.27482 
 H                    -8.62333  -1.1123    4.49266 
 H                    -9.07999  -2.38846   3.38995 
 C                    -9.0718   -2.97976   5.45522 
 H                    -8.97385  -4.02276   5.2374 
 H                    -8.51726  -2.74658   6.3401 
 C                    -10.5573  -2.63867   5.67556 
 H                    -10.65523  -1.59571   5.89363 
 H                    -11.1118  -2.87161   4.79059 
 C                    -11.10379  -3.46339   6.85572 
 H                    -11.00582  -4.50634   6.63767 
 H                    -10.54931  -3.23042   7.7407 
 C                    -12.5893  -3.12235   7.07602 
 H                    -12.68726  -2.07941   7.29417 
 H                    -13.14376  -3.35523   6.19101 
 C                    -13.13582  -3.94717   8.2561 
 H                    -13.03784  -4.99011   8.03795 
 H                    -12.58138  -3.71427   9.14111 
 C                    -14.62135  -3.60615   8.47637 
 H                    -14.71933  -2.56323   8.69456 
 H                    -15.17578  -3.83901   7.59134 
 C                    -15.16789  -4.43103   9.65641 
 H                    -15.0699  -5.47395   9.43823 
 H                    -14.61346  -4.19816   10.54144 
 C                    -16.65342  -4.09003   9.87667 
 H                    -16.75141  -3.0471    10.09487 
 H                    -17.20784  -4.32287   8.99163 
 C                    -17.19996  -4.91492   11.05668 
 H                    -17.10197  -5.95785   10.83848 
 H                    -16.64555  -4.68207   11.94172 
 C                    -18.6855  -4.57393   11.27694 
 H                    -19.06525  -5.14708   12.09681 
 H                    -18.78349  -3.53101   11.49515 
 H                    -19.23991  -4.80677   10.39189 
 
 ITRead=  0  0  0  0  0  0  0  0  0  0  0  0  0  0  0  0  0  0  0  0
 ITRead=  0  0  0  0  0  0  0  0  0  0  0  0  0  0  0  0  0  0  0  0
 ITRead=  0  0  0  0  0  0  0  0  0  0  0  0  0  0  0
 MicOpt= -1 -1 -1 -1 -1 -1 -1 -1 -1 -1 -1 -1 -1 -1 -1 -1 -1 -1 -1 -1
 MicOpt= -1 -1 -1 -1 -1 -1 -1 -1 -1 -1 -1 -1 -1 -1 -1 -1 -1 -1 -1 -1
 MicOpt= -1 -1 -1 -1 -1 -1 -1 -1 -1 -1 -1 -1 -1 -1 -1
 NAtoms=     55 NQM=       55 NQMF=       0 NMMI=      0 NMMIF=      0
                NMic=       0 NMicF=      0.
                    Isotopes and Nuclear Properties:
 (Nuclear quadrupole moments (NQMom) in fm**2, nuclear magnetic moments (NMagM)
  in nuclear magnetons)

  Atom         1           2           3           4           5           6           7           8           9          10
 IAtWgt=          12          16          16          12           1           1          12           1           1          12
 AtmWgt=  12.0000000  15.9949146  15.9949146  12.0000000   1.0078250   1.0078250  12.0000000   1.0078250   1.0078250  12.0000000
 NucSpn=           0           0           0           0           1           1           0           1           1           0
 AtZEff=  -0.0000000  -0.0000000  -0.0000000  -0.0000000  -0.0000000  -0.0000000  -0.0000000  -0.0000000  -0.0000000  -0.0000000
 NQMom=    0.0000000   0.0000000   0.0000000   0.0000000   0.0000000   0.0000000   0.0000000   0.0000000   0.0000000   0.0000000
 NMagM=    0.0000000   0.0000000   0.0000000   0.0000000   2.7928460   2.7928460   0.0000000   2.7928460   2.7928460   0.0000000
 AtZNuc=   6.0000000   8.0000000   8.0000000   6.0000000   1.0000000   1.0000000   6.0000000   1.0000000   1.0000000   6.0000000

  Atom        11          12          13          14          15          16          17          18          19          20
 IAtWgt=           1           1          12           1           1          12           1           1          12           1
 AtmWgt=   1.0078250   1.0078250  12.0000000   1.0078250   1.0078250  12.0000000   1.0078250   1.0078250  12.0000000   1.0078250
 NucSpn=           1           1           0           1           1           0           1           1           0           1
 AtZEff=  -0.0000000  -0.0000000  -0.0000000  -0.0000000  -0.0000000  -0.0000000  -0.0000000  -0.0000000  -0.0000000  -0.0000000
 NQMom=    0.0000000   0.0000000   0.0000000   0.0000000   0.0000000   0.0000000   0.0000000   0.0000000   0.0000000   0.0000000
 NMagM=    2.7928460   2.7928460   0.0000000   2.7928460   2.7928460   0.0000000   2.7928460   2.7928460   0.0000000   2.7928460
 AtZNuc=   1.0000000   1.0000000   6.0000000   1.0000000   1.0000000   6.0000000   1.0000000   1.0000000   6.0000000   1.0000000

  Atom        21          22          23          24          25          26          27          28          29          30
 IAtWgt=           1          12           1           1          12           1           1          12           1           1
 AtmWgt=   1.0078250  12.0000000   1.0078250   1.0078250  12.0000000   1.0078250   1.0078250  12.0000000   1.0078250   1.0078250
 NucSpn=           1           0           1           1           0           1           1           0           1           1
 AtZEff=  -0.0000000  -0.0000000  -0.0000000  -0.0000000  -0.0000000  -0.0000000  -0.0000000  -0.0000000  -0.0000000  -0.0000000
 NQMom=    0.0000000   0.0000000   0.0000000   0.0000000   0.0000000   0.0000000   0.0000000   0.0000000   0.0000000   0.0000000
 NMagM=    2.7928460   0.0000000   2.7928460   2.7928460   0.0000000   2.7928460   2.7928460   0.0000000   2.7928460   2.7928460
 AtZNuc=   1.0000000   6.0000000   1.0000000   1.0000000   6.0000000   1.0000000   1.0000000   6.0000000   1.0000000   1.0000000

  Atom        31          32          33          34          35          36          37          38          39          40
 IAtWgt=          12           1           1          12           1           1          12           1           1          12
 AtmWgt=  12.0000000   1.0078250   1.0078250  12.0000000   1.0078250   1.0078250  12.0000000   1.0078250   1.0078250  12.0000000
 NucSpn=           0           1           1           0           1           1           0           1           1           0
 AtZEff=  -0.0000000  -0.0000000  -0.0000000  -0.0000000  -0.0000000  -0.0000000  -0.0000000  -0.0000000  -0.0000000  -0.0000000
 NQMom=    0.0000000   0.0000000   0.0000000   0.0000000   0.0000000   0.0000000   0.0000000   0.0000000   0.0000000   0.0000000
 NMagM=    0.0000000   2.7928460   2.7928460   0.0000000   2.7928460   2.7928460   0.0000000   2.7928460   2.7928460   0.0000000
 AtZNuc=   6.0000000   1.0000000   1.0000000   6.0000000   1.0000000   1.0000000   6.0000000   1.0000000   1.0000000   6.0000000

  Atom        41          42          43          44          45          46          47          48          49          50
 IAtWgt=           1           1          12           1           1          12           1           1          12           1
 AtmWgt=   1.0078250   1.0078250  12.0000000   1.0078250   1.0078250  12.0000000   1.0078250   1.0078250  12.0000000   1.0078250
 NucSpn=           1           1           0           1           1           0           1           1           0           1
 AtZEff=  -0.0000000  -0.0000000  -0.0000000  -0.0000000  -0.0000000  -0.0000000  -0.0000000  -0.0000000  -0.0000000  -0.0000000
 NQMom=    0.0000000   0.0000000   0.0000000   0.0000000   0.0000000   0.0000000   0.0000000   0.0000000   0.0000000   0.0000000
 NMagM=    2.7928460   2.7928460   0.0000000   2.7928460   2.7928460   0.0000000   2.7928460   2.7928460   0.0000000   2.7928460
 AtZNuc=   1.0000000   1.0000000   6.0000000   1.0000000   1.0000000   6.0000000   1.0000000   1.0000000   6.0000000   1.0000000

  Atom        51          52          53          54          55
 IAtWgt=           1          12           1           1           1
 AtmWgt=   1.0078250  12.0000000   1.0078250   1.0078250   1.0078250
 NucSpn=           1           0           1           1           1
 AtZEff=  -0.0000000  -0.0000000  -0.0000000  -0.0000000  -0.0000000
 NQMom=    0.0000000   0.0000000   0.0000000   0.0000000   0.0000000
 NMagM=    2.7928460   0.0000000   2.7928460   2.7928460   2.7928460
 AtZNuc=   1.0000000   6.0000000   1.0000000   1.0000000   1.0000000
 Leave Link  101 at Wed Sep 30 05:10:58 2020, MaxMem=  3221225472 cpu:               3.8 elap:               0.8
 (Enter /usr/local/Gaussian/gaussian-16-A03-avx2/g16/l103.exe)

 GradGradGradGradGradGradGradGradGradGradGradGradGradGradGradGradGradGrad
 Berny optimization.
 Initialization pass.
                           ----------------------------
                           !    Initial Parameters    !
                           ! (Angstroms and Degrees)  !
 --------------------------                            --------------------------
 ! Name  Definition              Value          Derivative Info.                !
 --------------------------------------------------------------------------------
 ! R1    R(1,2)                  1.2584         estimate D2E/DX2                !
 ! R2    R(1,3)                  1.43           estimate D2E/DX2                !
 ! R3    R(1,4)                  1.54           estimate D2E/DX2                !
 ! R4    R(4,5)                  1.07           estimate D2E/DX2                !
 ! R5    R(4,6)                  1.07           estimate D2E/DX2                !
 ! R6    R(4,7)                  1.54           estimate D2E/DX2                !
 ! R7    R(7,8)                  1.07           estimate D2E/DX2                !
 ! R8    R(7,9)                  1.07           estimate D2E/DX2                !
 ! R9    R(7,10)                 1.54           estimate D2E/DX2                !
 ! R10   R(10,11)                1.07           estimate D2E/DX2                !
 ! R11   R(10,12)                1.07           estimate D2E/DX2                !
 ! R12   R(10,13)                1.54           estimate D2E/DX2                !
 ! R13   R(13,14)                1.07           estimate D2E/DX2                !
 ! R14   R(13,15)                1.07           estimate D2E/DX2                !
 ! R15   R(13,16)                1.54           estimate D2E/DX2                !
 ! R16   R(16,17)                1.07           estimate D2E/DX2                !
 ! R17   R(16,18)                1.07           estimate D2E/DX2                !
 ! R18   R(16,19)                1.54           estimate D2E/DX2                !
 ! R19   R(19,20)                1.07           estimate D2E/DX2                !
 ! R20   R(19,21)                1.07           estimate D2E/DX2                !
 ! R21   R(19,22)                1.54           estimate D2E/DX2                !
 ! R22   R(22,23)                1.07           estimate D2E/DX2                !
 ! R23   R(22,24)                1.07           estimate D2E/DX2                !
 ! R24   R(22,25)                1.54           estimate D2E/DX2                !
 ! R25   R(25,26)                1.07           estimate D2E/DX2                !
 ! R26   R(25,27)                1.07           estimate D2E/DX2                !
 ! R27   R(25,28)                1.54           estimate D2E/DX2                !
 ! R28   R(28,29)                1.07           estimate D2E/DX2                !
 ! R29   R(28,30)                1.07           estimate D2E/DX2                !
 ! R30   R(28,31)                1.54           estimate D2E/DX2                !
 ! R31   R(31,32)                1.07           estimate D2E/DX2                !
 ! R32   R(31,33)                1.07           estimate D2E/DX2                !
 ! R33   R(31,34)                1.54           estimate D2E/DX2                !
 ! R34   R(34,35)                1.07           estimate D2E/DX2                !
 ! R35   R(34,36)                1.07           estimate D2E/DX2                !
 ! R36   R(34,37)                1.54           estimate D2E/DX2                !
 ! R37   R(37,38)                1.07           estimate D2E/DX2                !
 ! R38   R(37,39)                1.07           estimate D2E/DX2                !
 ! R39   R(37,40)                1.54           estimate D2E/DX2                !
 ! R40   R(40,41)                1.07           estimate D2E/DX2                !
 ! R41   R(40,42)                1.07           estimate D2E/DX2                !
 ! R42   R(40,43)                1.54           estimate D2E/DX2                !
 ! R43   R(43,44)                1.07           estimate D2E/DX2                !
 ! R44   R(43,45)                1.07           estimate D2E/DX2                !
 ! R45   R(43,46)                1.54           estimate D2E/DX2                !
 ! R46   R(46,47)                1.07           estimate D2E/DX2                !
 ! R47   R(46,48)                1.07           estimate D2E/DX2                !
 ! R48   R(46,49)                1.54           estimate D2E/DX2                !
 ! R49   R(49,50)                1.07           estimate D2E/DX2                !
 ! R50   R(49,51)                1.07           estimate D2E/DX2                !
 ! R51   R(49,52)                1.54           estimate D2E/DX2                !
 ! R52   R(52,53)                1.07           estimate D2E/DX2                !
 ! R53   R(52,54)                1.07           estimate D2E/DX2                !
 ! R54   R(52,55)                1.07           estimate D2E/DX2                !
 ! A1    A(2,1,3)              120.2269         estimate D2E/DX2                !
 ! A2    A(2,1,4)              119.8865         estimate D2E/DX2                !
 ! A3    A(3,1,4)              119.8865         estimate D2E/DX2                !
 ! A4    A(1,4,5)              109.4712         estimate D2E/DX2                !
 ! A5    A(1,4,6)              109.4712         estimate D2E/DX2                !
 ! A6    A(1,4,7)              109.4712         estimate D2E/DX2                !
 ! A7    A(5,4,6)              109.4712         estimate D2E/DX2                !
 ! A8    A(5,4,7)              109.4713         estimate D2E/DX2                !
 ! A9    A(6,4,7)              109.4712         estimate D2E/DX2                !
 ! A10   A(4,7,8)              109.4712         estimate D2E/DX2                !
 ! A11   A(4,7,9)              109.4712         estimate D2E/DX2                !
 ! A12   A(4,7,10)             109.4712         estimate D2E/DX2                !
 ! A13   A(8,7,9)              109.4712         estimate D2E/DX2                !
 ! A14   A(8,7,10)             109.4713         estimate D2E/DX2                !
 ! A15   A(9,7,10)             109.4712         estimate D2E/DX2                !
 ! A16   A(7,10,11)            109.4712         estimate D2E/DX2                !
 ! A17   A(7,10,12)            109.4712         estimate D2E/DX2                !
 ! A18   A(7,10,13)            109.4712         estimate D2E/DX2                !
 ! A19   A(11,10,12)           109.4712         estimate D2E/DX2                !
 ! A20   A(11,10,13)           109.4713         estimate D2E/DX2                !
 ! A21   A(12,10,13)           109.4712         estimate D2E/DX2                !
 ! A22   A(10,13,14)           109.4712         estimate D2E/DX2                !
 ! A23   A(10,13,15)           109.4712         estimate D2E/DX2                !
 ! A24   A(10,13,16)           109.4712         estimate D2E/DX2                !
 ! A25   A(14,13,15)           109.4712         estimate D2E/DX2                !
 ! A26   A(14,13,16)           109.4713         estimate D2E/DX2                !
 ! A27   A(15,13,16)           109.4712         estimate D2E/DX2                !
 ! A28   A(13,16,17)           109.4712         estimate D2E/DX2                !
 ! A29   A(13,16,18)           109.4712         estimate D2E/DX2                !
 ! A30   A(13,16,19)           109.4712         estimate D2E/DX2                !
 ! A31   A(17,16,18)           109.4712         estimate D2E/DX2                !
 ! A32   A(17,16,19)           109.4713         estimate D2E/DX2                !
 ! A33   A(18,16,19)           109.4712         estimate D2E/DX2                !
 ! A34   A(16,19,20)           109.4712         estimate D2E/DX2                !
 ! A35   A(16,19,21)           109.4712         estimate D2E/DX2                !
 ! A36   A(16,19,22)           109.4712         estimate D2E/DX2                !
 ! A37   A(20,19,21)           109.4712         estimate D2E/DX2                !
 ! A38   A(20,19,22)           109.4713         estimate D2E/DX2                !
 ! A39   A(21,19,22)           109.4712         estimate D2E/DX2                !
 ! A40   A(19,22,23)           109.4712         estimate D2E/DX2                !
 ! A41   A(19,22,24)           109.4712         estimate D2E/DX2                !
 ! A42   A(19,22,25)           109.4712         estimate D2E/DX2                !
 ! A43   A(23,22,24)           109.4712         estimate D2E/DX2                !
 ! A44   A(23,22,25)           109.4713         estimate D2E/DX2                !
 ! A45   A(24,22,25)           109.4712         estimate D2E/DX2                !
 ! A46   A(22,25,26)           109.4712         estimate D2E/DX2                !
 ! A47   A(22,25,27)           109.4712         estimate D2E/DX2                !
 ! A48   A(22,25,28)           109.4712         estimate D2E/DX2                !
 ! A49   A(26,25,27)           109.4712         estimate D2E/DX2                !
 ! A50   A(26,25,28)           109.4713         estimate D2E/DX2                !
 ! A51   A(27,25,28)           109.4712         estimate D2E/DX2                !
 ! A52   A(25,28,29)           109.4712         estimate D2E/DX2                !
 ! A53   A(25,28,30)           109.4712         estimate D2E/DX2                !
 ! A54   A(25,28,31)           109.4712         estimate D2E/DX2                !
 ! A55   A(29,28,30)           109.4712         estimate D2E/DX2                !
 ! A56   A(29,28,31)           109.4713         estimate D2E/DX2                !
 ! A57   A(30,28,31)           109.4712         estimate D2E/DX2                !
 ! A58   A(28,31,32)           109.4712         estimate D2E/DX2                !
 ! A59   A(28,31,33)           109.4712         estimate D2E/DX2                !
 ! A60   A(28,31,34)           109.4712         estimate D2E/DX2                !
 ! A61   A(32,31,33)           109.4712         estimate D2E/DX2                !
 ! A62   A(32,31,34)           109.4713         estimate D2E/DX2                !
 ! A63   A(33,31,34)           109.4712         estimate D2E/DX2                !
 ! A64   A(31,34,35)           109.4712         estimate D2E/DX2                !
 ! A65   A(31,34,36)           109.4712         estimate D2E/DX2                !
 ! A66   A(31,34,37)           109.4712         estimate D2E/DX2                !
 ! A67   A(35,34,36)           109.4712         estimate D2E/DX2                !
 ! A68   A(35,34,37)           109.4713         estimate D2E/DX2                !
 ! A69   A(36,34,37)           109.4712         estimate D2E/DX2                !
 ! A70   A(34,37,38)           109.4712         estimate D2E/DX2                !
 ! A71   A(34,37,39)           109.4712         estimate D2E/DX2                !
 ! A72   A(34,37,40)           109.4712         estimate D2E/DX2                !
 ! A73   A(38,37,39)           109.4712         estimate D2E/DX2                !
 ! A74   A(38,37,40)           109.4713         estimate D2E/DX2                !
 ! A75   A(39,37,40)           109.4712         estimate D2E/DX2                !
 ! A76   A(37,40,41)           109.4712         estimate D2E/DX2                !
 ! A77   A(37,40,42)           109.4712         estimate D2E/DX2                !
 ! A78   A(37,40,43)           109.4712         estimate D2E/DX2                !
 ! A79   A(41,40,42)           109.4712         estimate D2E/DX2                !
 ! A80   A(41,40,43)           109.4713         estimate D2E/DX2                !
 ! A81   A(42,40,43)           109.4712         estimate D2E/DX2                !
 ! A82   A(40,43,44)           109.4712         estimate D2E/DX2                !
 ! A83   A(40,43,45)           109.4712         estimate D2E/DX2                !
 ! A84   A(40,43,46)           109.4712         estimate D2E/DX2                !
 ! A85   A(44,43,45)           109.4712         estimate D2E/DX2                !
 ! A86   A(44,43,46)           109.4713         estimate D2E/DX2                !
 ! A87   A(45,43,46)           109.4712         estimate D2E/DX2                !
 ! A88   A(43,46,47)           109.4712         estimate D2E/DX2                !
 ! A89   A(43,46,48)           109.4712         estimate D2E/DX2                !
 ! A90   A(43,46,49)           109.4712         estimate D2E/DX2                !
 ! A91   A(47,46,48)           109.4712         estimate D2E/DX2                !
 ! A92   A(47,46,49)           109.4713         estimate D2E/DX2                !
 ! A93   A(48,46,49)           109.4712         estimate D2E/DX2                !
 ! A94   A(46,49,50)           109.4712         estimate D2E/DX2                !
 ! A95   A(46,49,51)           109.4712         estimate D2E/DX2                !
 ! A96   A(46,49,52)           109.4712         estimate D2E/DX2                !
 ! A97   A(50,49,51)           109.4712         estimate D2E/DX2                !
 ! A98   A(50,49,52)           109.4713         estimate D2E/DX2                !
 ! A99   A(51,49,52)           109.4712         estimate D2E/DX2                !
 ! A100  A(49,52,53)           109.4712         estimate D2E/DX2                !
 ! A101  A(49,52,54)           109.4712         estimate D2E/DX2                !
 ! A102  A(49,52,55)           109.4712         estimate D2E/DX2                !
 ! A103  A(53,52,54)           109.4713         estimate D2E/DX2                !
 ! A104  A(53,52,55)           109.4712         estimate D2E/DX2                !
 ! A105  A(54,52,55)           109.4712         estimate D2E/DX2                !
 ! D1    D(2,1,4,5)            119.9989         estimate D2E/DX2                !
 ! D2    D(2,1,4,6)             -0.0011         estimate D2E/DX2                !
 ! D3    D(2,1,4,7)           -120.0011         estimate D2E/DX2                !
 ! D4    D(3,1,4,5)            -60.0011         estimate D2E/DX2                !
 ! D5    D(3,1,4,6)            179.9989         estimate D2E/DX2                !
 ! D6    D(3,1,4,7)             59.9989         estimate D2E/DX2                !
 ! D7    D(1,4,7,8)            -75.3825         estimate D2E/DX2                !
 ! D8    D(1,4,7,9)             44.6175         estimate D2E/DX2                !
 ! D9    D(1,4,7,10)           164.6175         estimate D2E/DX2                !
 ! D10   D(5,4,7,8)             44.6175         estimate D2E/DX2                !
 ! D11   D(5,4,7,9)            164.6175         estimate D2E/DX2                !
 ! D12   D(5,4,7,10)           -75.3825         estimate D2E/DX2                !
 ! D13   D(6,4,7,8)            164.6175         estimate D2E/DX2                !
 ! D14   D(6,4,7,9)            -75.3825         estimate D2E/DX2                !
 ! D15   D(6,4,7,10)            44.6175         estimate D2E/DX2                !
 ! D16   D(4,7,10,11)           55.2399         estimate D2E/DX2                !
 ! D17   D(4,7,10,12)          -64.7601         estimate D2E/DX2                !
 ! D18   D(4,7,10,13)          175.24           estimate D2E/DX2                !
 ! D19   D(8,7,10,11)          -64.76           estimate D2E/DX2                !
 ! D20   D(8,7,10,12)          175.24           estimate D2E/DX2                !
 ! D21   D(8,7,10,13)           55.24           estimate D2E/DX2                !
 ! D22   D(9,7,10,11)          175.2399         estimate D2E/DX2                !
 ! D23   D(9,7,10,12)           55.2399         estimate D2E/DX2                !
 ! D24   D(9,7,10,13)          -64.76           estimate D2E/DX2                !
 ! D25   D(7,10,13,14)         -60.8131         estimate D2E/DX2                !
 ! D26   D(7,10,13,15)          59.1869         estimate D2E/DX2                !
 ! D27   D(7,10,13,16)         179.1869         estimate D2E/DX2                !
 ! D28   D(11,10,13,14)         59.1869         estimate D2E/DX2                !
 ! D29   D(11,10,13,15)        179.1869         estimate D2E/DX2                !
 ! D30   D(11,10,13,16)        -60.8131         estimate D2E/DX2                !
 ! D31   D(12,10,13,14)        179.1869         estimate D2E/DX2                !
 ! D32   D(12,10,13,15)        -60.8131         estimate D2E/DX2                !
 ! D33   D(12,10,13,16)         59.1869         estimate D2E/DX2                !
 ! D34   D(10,13,16,17)        -60.3943         estimate D2E/DX2                !
 ! D35   D(10,13,16,18)         59.6057         estimate D2E/DX2                !
 ! D36   D(10,13,16,19)        179.6057         estimate D2E/DX2                !
 ! D37   D(14,13,16,17)        179.6057         estimate D2E/DX2                !
 ! D38   D(14,13,16,18)        -60.3943         estimate D2E/DX2                !
 ! D39   D(14,13,16,19)         59.6057         estimate D2E/DX2                !
 ! D40   D(15,13,16,17)         59.6057         estimate D2E/DX2                !
 ! D41   D(15,13,16,18)        179.6057         estimate D2E/DX2                !
 ! D42   D(15,13,16,19)        -60.3943         estimate D2E/DX2                !
 ! D43   D(13,16,19,20)        -60.0353         estimate D2E/DX2                !
 ! D44   D(13,16,19,21)         59.9647         estimate D2E/DX2                !
 ! D45   D(13,16,19,22)        179.9647         estimate D2E/DX2                !
 ! D46   D(17,16,19,20)        179.9647         estimate D2E/DX2                !
 ! D47   D(17,16,19,21)        -60.0353         estimate D2E/DX2                !
 ! D48   D(17,16,19,22)         59.9647         estimate D2E/DX2                !
 ! D49   D(18,16,19,20)         59.9647         estimate D2E/DX2                !
 ! D50   D(18,16,19,21)        179.9647         estimate D2E/DX2                !
 ! D51   D(18,16,19,22)        -60.0353         estimate D2E/DX2                !
 ! D52   D(16,19,22,23)        -60.0558         estimate D2E/DX2                !
 ! D53   D(16,19,22,24)         59.9442         estimate D2E/DX2                !
 ! D54   D(16,19,22,25)        179.9442         estimate D2E/DX2                !
 ! D55   D(20,19,22,23)        179.9442         estimate D2E/DX2                !
 ! D56   D(20,19,22,24)        -60.0558         estimate D2E/DX2                !
 ! D57   D(20,19,22,25)         59.9442         estimate D2E/DX2                !
 ! D58   D(21,19,22,23)         59.9442         estimate D2E/DX2                !
 ! D59   D(21,19,22,24)        179.9442         estimate D2E/DX2                !
 ! D60   D(21,19,22,25)        -60.0558         estimate D2E/DX2                !
 ! D61   D(19,22,25,26)        -59.9971         estimate D2E/DX2                !
 ! D62   D(19,22,25,27)         60.0028         estimate D2E/DX2                !
 ! D63   D(19,22,25,28)       -179.9972         estimate D2E/DX2                !
 ! D64   D(23,22,25,26)       -179.9971         estimate D2E/DX2                !
 ! D65   D(23,22,25,27)        -59.9971         estimate D2E/DX2                !
 ! D66   D(23,22,25,28)         60.0029         estimate D2E/DX2                !
 ! D67   D(24,22,25,26)         60.0029         estimate D2E/DX2                !
 ! D68   D(24,22,25,27)       -179.9972         estimate D2E/DX2                !
 ! D69   D(24,22,25,28)        -59.9972         estimate D2E/DX2                !
 ! D70   D(22,25,28,29)        -60.0148         estimate D2E/DX2                !
 ! D71   D(22,25,28,30)         59.9852         estimate D2E/DX2                !
 ! D72   D(22,25,28,31)        179.9852         estimate D2E/DX2                !
 ! D73   D(26,25,28,29)        179.9852         estimate D2E/DX2                !
 ! D74   D(26,25,28,30)        -60.0148         estimate D2E/DX2                !
 ! D75   D(26,25,28,31)         59.9852         estimate D2E/DX2                !
 ! D76   D(27,25,28,29)         59.9852         estimate D2E/DX2                !
 ! D77   D(27,25,28,30)        179.9852         estimate D2E/DX2                !
 ! D78   D(27,25,28,31)        -60.0148         estimate D2E/DX2                !
 ! D79   D(25,28,31,32)        -59.9974         estimate D2E/DX2                !
 ! D80   D(25,28,31,33)         60.0025         estimate D2E/DX2                !
 ! D81   D(25,28,31,34)       -179.9975         estimate D2E/DX2                !
 ! D82   D(29,28,31,32)       -179.9974         estimate D2E/DX2                !
 ! D83   D(29,28,31,33)        -59.9974         estimate D2E/DX2                !
 ! D84   D(29,28,31,34)         60.0026         estimate D2E/DX2                !
 ! D85   D(30,28,31,32)         60.0026         estimate D2E/DX2                !
 ! D86   D(30,28,31,33)       -179.9975         estimate D2E/DX2                !
 ! D87   D(30,28,31,34)        -59.9975         estimate D2E/DX2                !
 ! D88   D(28,31,34,35)        -60.0056         estimate D2E/DX2                !
 ! D89   D(28,31,34,36)         59.9944         estimate D2E/DX2                !
 ! D90   D(28,31,34,37)        179.9944         estimate D2E/DX2                !
 ! D91   D(32,31,34,35)        179.9944         estimate D2E/DX2                !
 ! D92   D(32,31,34,36)        -60.0056         estimate D2E/DX2                !
 ! D93   D(32,31,34,37)         59.9944         estimate D2E/DX2                !
 ! D94   D(33,31,34,35)         59.9944         estimate D2E/DX2                !
 ! D95   D(33,31,34,36)        179.9944         estimate D2E/DX2                !
 ! D96   D(33,31,34,37)        -60.0056         estimate D2E/DX2                !
 ! D97   D(31,34,37,38)        -59.9986         estimate D2E/DX2                !
 ! D98   D(31,34,37,39)         60.0014         estimate D2E/DX2                !
 ! D99   D(31,34,37,40)       -179.9986         estimate D2E/DX2                !
 ! D100  D(35,34,37,38)       -179.9986         estimate D2E/DX2                !
 ! D101  D(35,34,37,39)        -59.9986         estimate D2E/DX2                !
 ! D102  D(35,34,37,40)         60.0014         estimate D2E/DX2                !
 ! D103  D(36,34,37,38)         60.0014         estimate D2E/DX2                !
 ! D104  D(36,34,37,39)       -179.9986         estimate D2E/DX2                !
 ! D105  D(36,34,37,40)        -59.9986         estimate D2E/DX2                !
 ! D106  D(34,37,40,41)        -60.0025         estimate D2E/DX2                !
 ! D107  D(34,37,40,42)         59.9975         estimate D2E/DX2                !
 ! D108  D(34,37,40,43)        179.9974         estimate D2E/DX2                !
 ! D109  D(38,37,40,41)        179.9975         estimate D2E/DX2                !
 ! D110  D(38,37,40,42)        -60.0025         estimate D2E/DX2                !
 ! D111  D(38,37,40,43)         59.9975         estimate D2E/DX2                !
 ! D112  D(39,37,40,41)         59.9975         estimate D2E/DX2                !
 ! D113  D(39,37,40,42)        179.9975         estimate D2E/DX2                !
 ! D114  D(39,37,40,43)        -60.0026         estimate D2E/DX2                !
 ! D115  D(37,40,43,44)        -59.9992         estimate D2E/DX2                !
 ! D116  D(37,40,43,45)         60.0008         estimate D2E/DX2                !
 ! D117  D(37,40,43,46)       -179.9992         estimate D2E/DX2                !
 ! D118  D(41,40,43,44)       -179.9992         estimate D2E/DX2                !
 ! D119  D(41,40,43,45)        -59.9992         estimate D2E/DX2                !
 ! D120  D(41,40,43,46)         60.0008         estimate D2E/DX2                !
 ! D121  D(42,40,43,44)         60.0008         estimate D2E/DX2                !
 ! D122  D(42,40,43,45)       -179.9992         estimate D2E/DX2                !
 ! D123  D(42,40,43,46)        -59.9992         estimate D2E/DX2                !
 ! D124  D(40,43,46,47)        -60.0014         estimate D2E/DX2                !
 ! D125  D(40,43,46,48)         59.9986         estimate D2E/DX2                !
 ! D126  D(40,43,46,49)        179.9986         estimate D2E/DX2                !
 ! D127  D(44,43,46,47)        179.9987         estimate D2E/DX2                !
 ! D128  D(44,43,46,48)        -60.0013         estimate D2E/DX2                !
 ! D129  D(44,43,46,49)         59.9986         estimate D2E/DX2                !
 ! D130  D(45,43,46,47)         59.9986         estimate D2E/DX2                !
 ! D131  D(45,43,46,48)        179.9986         estimate D2E/DX2                !
 ! D132  D(45,43,46,49)        -60.0014         estimate D2E/DX2                !
 ! D133  D(43,46,49,50)        -59.9996         estimate D2E/DX2                !
 ! D134  D(43,46,49,51)         60.0004         estimate D2E/DX2                !
 ! D135  D(43,46,49,52)       -179.9996         estimate D2E/DX2                !
 ! D136  D(47,46,49,50)       -179.9995         estimate D2E/DX2                !
 ! D137  D(47,46,49,51)        -59.9995         estimate D2E/DX2                !
 ! D138  D(47,46,49,52)         60.0004         estimate D2E/DX2                !
 ! D139  D(48,46,49,50)         60.0004         estimate D2E/DX2                !
 ! D140  D(48,46,49,51)       -179.9996         estimate D2E/DX2                !
 ! D141  D(48,46,49,52)        -59.9996         estimate D2E/DX2                !
 ! D142  D(46,49,52,53)        179.9992         estimate D2E/DX2                !
 ! D143  D(46,49,52,54)        -60.0008         estimate D2E/DX2                !
 ! D144  D(46,49,52,55)         59.9992         estimate D2E/DX2                !
 ! D145  D(50,49,52,53)         59.9992         estimate D2E/DX2                !
 ! D146  D(50,49,52,54)        179.9992         estimate D2E/DX2                !
 ! D147  D(50,49,52,55)        -60.0008         estimate D2E/DX2                !
 ! D148  D(51,49,52,53)        -60.0008         estimate D2E/DX2                !
 ! D149  D(51,49,52,54)         59.9992         estimate D2E/DX2                !
 ! D150  D(51,49,52,55)        179.9992         estimate D2E/DX2                !
 --------------------------------------------------------------------------------
 Trust Radius=3.00D-01 FncErr=1.00D-07 GrdErr=1.00D-06 EigMax=2.50D+02 EigMin=1.00D-04
 Number of steps in this run=    319 maximum allowed number of steps=    330.
 GradGradGradGradGradGradGradGradGradGradGradGradGradGradGradGradGradGrad

 Leave Link  103 at Wed Sep 30 05:10:58 2020, MaxMem=  3221225472 cpu:               0.2 elap:               0.1
 (Enter /usr/local/Gaussian/gaussian-16-A03-avx2/g16/l202.exe)
 Stoichiometry    C18H35O2(1-)
 Framework group  C1[X(C18H35O2)]
 Deg. of freedom   159
 Full point group                 C1      NOp   1
 Largest Abelian subgroup         C1      NOp   1
 Largest concise Abelian subgroup C1      NOp   1
                         Standard orientation:                         
 ---------------------------------------------------------------------
 Center     Atomic      Atomic             Coordinates (Angstroms)
 Number     Number       Type             X           Y           Z
 ---------------------------------------------------------------------
      1          6           0       -9.759240    0.093784    0.163251
      2          8           0      -10.478120   -0.458273    1.036185
      3          8           0      -10.111768    1.380716   -0.350978
      4          6           0       -8.495508   -0.618995   -0.353013
      5          1           0       -8.580091   -0.775325   -1.408147
      6          1           0       -8.391740   -1.562854    0.140204
      7          6           0       -7.259389    0.251676   -0.060537
      8          1           0       -7.227666    1.069159   -0.750185
      9          1           0       -7.317944    0.630025    0.938624
     10          6           0       -5.984652   -0.598759   -0.213528
     11          1           0       -5.967948   -1.044632   -1.186060
     12          1           0       -5.976905   -1.366992    0.531226
     13          6           0       -4.745105    0.298211   -0.038688
     14          1           0       -4.745430    1.057894   -0.792201
     15          1           0       -4.769098    0.755195    0.928520
     16          6           0       -3.470560   -0.555909   -0.171407
     17          1           0       -3.466903   -1.311286    0.586414
     18          1           0       -3.449982   -1.018382   -1.136081
     19          6           0       -2.230898    0.342764   -0.006414
     20          1           0       -2.234233    1.097765   -0.764611
     21          1           0       -2.251793    0.805717    0.958023
     22          6           0       -0.956362   -0.511505   -0.138251
     23          1           0       -0.952554   -1.265894    0.620553
     24          1           0       -0.935949   -0.975234   -1.102325
     25          6           0        0.283315    0.387404    0.025348
     26          1           0        0.279480    1.141823   -0.733425
     27          1           0        0.262928    0.851094    0.989442
     28          6           0        1.557851   -0.466854   -0.106560
     29          1           0        1.561810   -1.221111    0.652374
     30          1           0        1.578111   -0.930750   -1.070557
     31          6           0        2.797531    0.432117    0.056670
     32          1           0        2.793548    1.186401   -0.702237
     33          1           0        2.777295    0.895979    1.020684
     34          6           0        4.072068   -0.422130   -0.075302
     35          1           0        4.076098   -1.176352    0.683666
     36          1           0        4.092257   -0.886069   -1.039280
     37          6           0        5.311750    0.476865    0.087787
     38          1           0        5.307706    1.231103   -0.671166
     39          1           0        5.291574    0.940786    1.051774
     40          6           0        6.586287   -0.377376   -0.044220
     41          1           0        6.590351   -1.131585    0.714761
     42          1           0        6.606441   -0.841332   -1.008190
     43          6           0        7.825969    0.521630    0.118806
     44          1           0        7.821897    1.275848   -0.640166
     45          1           0        7.805823    0.985575    1.082782
     46          6           0        9.100507   -0.332608   -0.013221
     47          1           0        9.104590   -1.086811    0.745766
     48          1           0        9.120641   -0.796572   -0.977187
     49          6           0       10.340189    0.566404    0.149770
     50          1           0       10.336101    1.320611   -0.609212
     51          1           0       10.320059    1.030362    1.113740
     52          6           0       11.614727   -0.287832    0.017733
     53          1           0       12.476065    0.336808    0.130967
     54          1           0       11.618820   -1.042031    0.776724
     55          1           0       11.634851   -0.751801   -0.946231
 ---------------------------------------------------------------------
 Rotational constants (GHZ):           3.0746074           0.0352550           0.0350966
 Leave Link  202 at Wed Sep 30 05:10:58 2020, MaxMem=  3221225472 cpu:               0.5 elap:               0.1
 (Enter /usr/local/Gaussian/gaussian-16-A03-avx2/g16/l301.exe)
 Standard basis: 6-311+G(d,p) (5D, 7F)
 Ernie: Thresh=  0.10000D-02 Tol=  0.10000D-05 Strict=F.
 There are   670 symmetry adapted cartesian basis functions of A   symmetry.
 There are   650 symmetry adapted basis functions of A   symmetry.
   650 basis functions,  1000 primitive gaussians,   670 cartesian basis functions
    80 alpha electrons       80 beta electrons
       nuclear repulsion energy      1350.1416429224 Hartrees.
 IExCor=20419 DFT=T Ex+Corr=CAM-B3LYP ExCW=0 ScaHFX=  1.000000
 ScaDFX=  1.000000  1.000000  1.000000  0.810000 ScalE2=  1.000000  1.000000
 IRadAn=      5 IRanWt=     -1 IRanGd=            0 ICorTp=0 IEmpDi=  4
 HFx  wShort=  0.000000 wLong=  0.330000 cFull=  0.190000 cShort=  0.000000 cLong=  0.460000
 DFx  wShort=  0.000000 wLong=  0.330000 cFull=  0.190000 cShort=  0.000000 cLong=  0.460000
 NAtoms=   55 NActive=   55 NUniq=   55 SFac= 1.00D+00 NAtFMM=   60 NAOKFM=F Big=F
 Integral buffers will be    131072 words long.
 Raffenetti 2 integral format.
 Two-electron integral symmetry is turned on.
 Leave Link  301 at Wed Sep 30 05:10:58 2020, MaxMem=  3221225472 cpu:               0.6 elap:               0.1
 (Enter /usr/local/Gaussian/gaussian-16-A03-avx2/g16/linda-exe/l302.exel)
 NPDir=0 NMtPBC=     1 NCelOv=     1 NCel=       1 NClECP=     1 NCelD=      1
         NCelK=      1 NCelE2=     1 NClLst=     1 CellRange=     0.0.
 One-electron integrals computed using PRISM.
 One-electron integral symmetry used in STVInt
 NBasis=   650 RedAO= T EigKep=  1.24D-06  NBF=   650
 NBsUse=   649 1.00D-06 EigRej=  1.96D-07 NBFU=   649
 Precomputing XC quadrature grid using
 IXCGrd= 4 IRadAn=           5 IRanWt=          -1 IRanGd=           0 AccXCQ= 0.00D+00.
 Generated NRdTot=       0 NPtTot=           0 NUsed=           0 NTot=          32
 NSgBfM=   547   547   547   547   547 MxSgAt=    55 MxSgA2=    55.
 Leave Link  302 at Wed Sep 30 05:11:01 2020, MaxMem=  3221225472 cpu:               8.9 elap:               1.6
 (Enter /usr/local/Gaussian/gaussian-16-A03-avx2/g16/l303.exe)
 DipDrv:  MaxL=1.
 Leave Link  303 at Wed Sep 30 05:11:01 2020, MaxMem=  3221225472 cpu:               1.1 elap:               0.3
 (Enter /usr/local/Gaussian/gaussian-16-A03-avx2/g16/linda-exe/l401.exel)
 ExpMin= 4.38D-02 ExpMax= 8.59D+03 ExpMxC= 1.30D+03 IAcc=3 IRadAn=         5 AccDes= 0.00D+00
 Harris functional with IExCor=20419 and IRadAn=       5 diagonalized for initial guess.
 HarFok:  IExCor=20419 AccDes= 0.00D+00 IRadAn=         5 IDoV= 1 UseB2=F ITyADJ=14
 ICtDFT=  3500011 ScaDFX=  1.000000  1.000000  1.000000  1.000000
 FoFCou: FMM=F IPFlag=           0 FMFlag=      100000 FMFlg1=           0
         NFxFlg=           0 DoJE=T BraDBF=F KetDBF=T FulRan=T
         wScrn=  0.000000 ICntrl=       500 IOpCl=  0 I1Cent=   200000004 NGrid=           0
         NMat0=    1 NMatS0=      1 NMatT0=    0 NMatD0=    1 NMtDS0=    0 NMtDT0=    0
 Petite list used in FoFCou.
 Harris En= -821.425968963343    
 JPrj=0 DoOrth=F DoCkMO=F.
 Leave Link  401 at Wed Sep 30 05:11:06 2020, MaxMem=  3221225472 cpu:              24.5 elap:               4.2
 (Enter /usr/local/Gaussian/gaussian-16-A03-avx2/g16/linda-exe/l502.exel)
 Integral symmetry usage will be decided dynamically.
 Closed shell SCF:
 Using DIIS extrapolation, IDIIS=  1040.
 NGot=  3221225472 LenX=  3220316845 LenY=  3219867275
 Requested convergence on RMS density matrix=1.00D-08 within  32 cycles.
 Requested convergence on MAX density matrix=1.00D-06.
 Requested convergence on             energy=1.00D-06.
 No special actions if energy rises.
 Fock matrices will be formed incrementally for  20 cycles.

 Cycle   1  Pass 1  IDiag  1:
 FoFJK:  IHMeth= 1 ICntrl=       0 DoSepK=T KAlg= 0 I1Cent=           0 FoldK=F
 IRaf=         1 NMat=       1 IRICut=       1 DoRegI=T DoRafI=F ISym2E= 0 IDoP0=0 IntGTp=1.
 FoFCou: FMM=F IPFlag=           0 FMFlag=      100000 FMFlg1=           0
         NFxFlg=           0 DoJE=T BraDBF=F KetDBF=F FulRan=T
         wScrn=  0.000000 ICntrl=       500 IOpCl=  0 I1Cent=           0 NGrid=           0
         NMat0=    1 NMatS0=      1 NMatT0=    0 NMatD0=    1 NMtDS0=    0 NMtDT0=    0
 Symmetry not used in FoFCou.
 E= -856.959881070033    
 DIIS: error= 5.76D-02 at cycle   1 NSaved=   1.
 NSaved= 1 IEnMin= 1 EnMin= -856.959881070033     IErMin= 1 ErrMin= 5.76D-02
 ErrMax= 5.76D-02  0.00D+00 EMaxC= 1.00D-01 BMatC= 1.41D+00 BMatP= 1.41D+00
 IDIUse=3 WtCom= 4.24D-01 WtEn= 5.76D-01
 Coeff-Com:  0.100D+01
 Coeff-En:   0.100D+01
 Coeff:      0.100D+01
 Gap=     0.193 Goal=   None    Shift=    0.000
 GapD=    0.193 DampG=1.000 DampE=0.500 DampFc=0.5000 IDamp=-1.
 Damping current iteration by 5.00D-01
 RMSDP=6.70D-03 MaxDP=5.72D-01              OVMax= 6.98D-02

 Cycle   2  Pass 1  IDiag  1:
 RMSU=  3.18D-03    CP:  1.05D+00
 E= -857.104640128611     Delta-E=       -0.144759058578 Rises=F Damp=T
 DIIS: error= 2.69D-02 at cycle   2 NSaved=   2.
 NSaved= 2 IEnMin= 2 EnMin= -857.104640128611     IErMin= 2 ErrMin= 2.69D-02
 ErrMax= 2.69D-02  0.00D+00 EMaxC= 1.00D-01 BMatC= 3.01D-01 BMatP= 1.41D+00
 IDIUse=3 WtCom= 7.31D-01 WtEn= 2.69D-01
 Coeff-Com: -0.698D+00 0.170D+01
 Coeff-En:   0.000D+00 0.100D+01
 Coeff:     -0.511D+00 0.151D+01
 Gap=     0.146 Goal=   None    Shift=    0.000
 RMSDP=6.11D-03 MaxDP=5.56D-01 DE=-1.45D-01 OVMax= 4.93D-02

 Cycle   3  Pass 1  IDiag  1:
 RMSU=  2.93D-03    CP:  1.24D+00  2.00D+00
 E= -857.219291098011     Delta-E=       -0.114650969400 Rises=F Damp=F
 DIIS: error= 6.59D-03 at cycle   3 NSaved=   3.
 NSaved= 3 IEnMin= 3 EnMin= -857.219291098011     IErMin= 3 ErrMin= 6.59D-03
 ErrMax= 6.59D-03  0.00D+00 EMaxC= 1.00D-01 BMatC= 2.53D-02 BMatP= 3.01D-01
 IDIUse=3 WtCom= 9.34D-01 WtEn= 6.59D-02
 Coeff-Com: -0.294D+00 0.640D+00 0.654D+00
 Coeff-En:   0.000D+00 0.000D+00 0.100D+01
 Coeff:     -0.275D+00 0.598D+00 0.677D+00
 Gap=     0.155 Goal=   None    Shift=    0.000
 RMSDP=1.87D-03 MaxDP=1.68D-01 DE=-1.15D-01 OVMax= 3.63D-02

 Cycle   4  Pass 1  IDiag  1:
 RMSU=  1.18D-03    CP:  1.21D+00  1.92D+00  5.81D-01
 E= -857.240372047026     Delta-E=       -0.021080949015 Rises=F Damp=F
 DIIS: error= 3.95D-03 at cycle   4 NSaved=   4.
 NSaved= 4 IEnMin= 4 EnMin= -857.240372047026     IErMin= 4 ErrMin= 3.95D-03
 ErrMax= 3.95D-03  0.00D+00 EMaxC= 1.00D-01 BMatC= 2.93D-03 BMatP= 2.53D-02
 IDIUse=3 WtCom= 9.61D-01 WtEn= 3.95D-02
 Coeff-Com: -0.173D+00 0.375D+00 0.423D+00 0.375D+00
 Coeff-En:   0.000D+00 0.000D+00 0.000D+00 0.100D+01
 Coeff:     -0.166D+00 0.360D+00 0.406D+00 0.400D+00
 Gap=     0.157 Goal=   None    Shift=    0.000
 RMSDP=5.17D-04 MaxDP=6.01D-02 DE=-2.11D-02 OVMax= 2.05D-02

 Cycle   5  Pass 1  IDiag  1:
 RMSU=  4.07D-04    CP:  1.20D+00  1.90D+00  6.68D-01  8.57D-01
 E= -857.242377202574     Delta-E=       -0.002005155548 Rises=F Damp=F
 DIIS: error= 7.89D-04 at cycle   5 NSaved=   5.
 NSaved= 5 IEnMin= 5 EnMin= -857.242377202574     IErMin= 5 ErrMin= 7.89D-04
 ErrMax= 7.89D-04  0.00D+00 EMaxC= 1.00D-01 BMatC= 1.29D-04 BMatP= 2.93D-03
 IDIUse=3 WtCom= 9.92D-01 WtEn= 7.89D-03
 Coeff-Com: -0.206D-03 0.145D-03 0.926D-02 0.173D+00 0.818D+00
 Coeff-En:   0.000D+00 0.000D+00 0.000D+00 0.000D+00 0.100D+01
 Coeff:     -0.205D-03 0.143D-03 0.919D-02 0.172D+00 0.819D+00
 Gap=     0.154 Goal=   None    Shift=    0.000
 RMSDP=2.09D-04 MaxDP=1.42D-02 DE=-2.01D-03 OVMax= 3.76D-03

 Cycle   6  Pass 1  IDiag  1:
 RMSU=  6.17D-05    CP:  1.21D+00  1.90D+00  6.65D-01  1.00D+00  1.02D+00
 E= -857.242471120805     Delta-E=       -0.000093918231 Rises=F Damp=F
 DIIS: error= 1.07D-04 at cycle   6 NSaved=   6.
 NSaved= 6 IEnMin= 6 EnMin= -857.242471120805     IErMin= 6 ErrMin= 1.07D-04
 ErrMax= 1.07D-04  0.00D+00 EMaxC= 1.00D-01 BMatC= 7.39D-06 BMatP= 1.29D-04
 IDIUse=3 WtCom= 9.99D-01 WtEn= 1.07D-03
 Coeff-Com:  0.130D-01-0.285D-01-0.276D-01 0.467D-01 0.364D+00 0.632D+00
 Coeff-En:   0.000D+00 0.000D+00 0.000D+00 0.000D+00 0.000D+00 0.100D+01
 Coeff:      0.130D-01-0.285D-01-0.276D-01 0.466D-01 0.364D+00 0.633D+00
 Gap=     0.154 Goal=   None    Shift=    0.000
 RMSDP=8.47D-05 MaxDP=8.07D-03 DE=-9.39D-05 OVMax= 4.69D-04

 Cycle   7  Pass 1  IDiag  1:
 RMSU=  1.52D-05    CP:  1.21D+00  1.89D+00  6.60D-01  1.05D+00  1.12D+00
                    CP:  1.02D+00
 E= -857.242478505466     Delta-E=       -0.000007384661 Rises=F Damp=F
 DIIS: error= 1.39D-05 at cycle   7 NSaved=   7.
 NSaved= 7 IEnMin= 7 EnMin= -857.242478505466     IErMin= 7 ErrMin= 1.39D-05
 ErrMax= 1.39D-05  0.00D+00 EMaxC= 1.00D-01 BMatC= 1.63D-07 BMatP= 7.39D-06
 IDIUse=1 WtCom= 1.00D+00 WtEn= 0.00D+00
 Coeff-Com:  0.328D-02-0.709D-02-0.707D-02-0.238D-02 0.233D-01 0.131D+00
 Coeff-Com:  0.859D+00
 Coeff:      0.328D-02-0.709D-02-0.707D-02-0.238D-02 0.233D-01 0.131D+00
 Coeff:      0.859D+00
 Gap=     0.154 Goal=   None    Shift=    0.000
 RMSDP=2.54D-05 MaxDP=2.28D-03 DE=-7.38D-06 OVMax= 1.92D-04

 Cycle   8  Pass 1  IDiag  1:
 RMSU=  4.60D-06    CP:  1.21D+00  1.89D+00  6.59D-01  1.07D+00  1.14D+00
                    CP:  1.07D+00  1.13D+00
 E= -857.242478733461     Delta-E=       -0.000000227994 Rises=F Damp=F
 DIIS: error= 3.27D-06 at cycle   8 NSaved=   8.
 NSaved= 8 IEnMin= 8 EnMin= -857.242478733461     IErMin= 8 ErrMin= 3.27D-06
 ErrMax= 3.27D-06  0.00D+00 EMaxC= 1.00D-01 BMatC= 1.17D-08 BMatP= 1.63D-07
 IDIUse=1 WtCom= 1.00D+00 WtEn= 0.00D+00
 Coeff-Com:  0.890D-04-0.160D-03-0.116D-03-0.295D-02-0.156D-01-0.554D-02
 Coeff-Com:  0.192D+00 0.832D+00
 Coeff:      0.890D-04-0.160D-03-0.116D-03-0.295D-02-0.156D-01-0.554D-02
 Coeff:      0.192D+00 0.832D+00
 Gap=     0.154 Goal=   None    Shift=    0.000
 RMSDP=6.29D-06 MaxDP=7.04D-04 DE=-2.28D-07 OVMax= 6.70D-05

 Cycle   9  Pass 1  IDiag  1:
 RMSU=  1.08D-06    CP:  1.21D+00  1.88D+00  6.59D-01  1.07D+00  1.15D+00
                    CP:  1.09D+00  1.20D+00  1.18D+00
 E= -857.242478750049     Delta-E=       -0.000000016588 Rises=F Damp=F
 DIIS: error= 1.84D-06 at cycle   9 NSaved=   9.
 NSaved= 9 IEnMin= 9 EnMin= -857.242478750049     IErMin= 9 ErrMin= 1.84D-06
 ErrMax= 1.84D-06  0.00D+00 EMaxC= 1.00D-01 BMatC= 2.32D-09 BMatP= 1.17D-08
 IDIUse=1 WtCom= 1.00D+00 WtEn= 0.00D+00
 Coeff-Com: -0.307D-03 0.673D-03 0.697D-03-0.807D-03-0.868D-02-0.144D-01
 Coeff-Com: -0.583D-02 0.324D+00 0.705D+00
 Coeff:     -0.307D-03 0.673D-03 0.697D-03-0.807D-03-0.868D-02-0.144D-01
 Coeff:     -0.583D-02 0.324D+00 0.705D+00
 Gap=     0.154 Goal=   None    Shift=    0.000
 RMSDP=2.94D-06 MaxDP=2.82D-04 DE=-1.66D-08 OVMax= 2.42D-05

 Cycle  10  Pass 1  IDiag  1:
 RMSU=  3.58D-07    CP:  1.21D+00  1.88D+00  6.59D-01  1.07D+00  1.15D+00
                    CP:  1.10D+00  1.23D+00  1.29D+00  1.17D+00
 E= -857.242478752772     Delta-E=       -0.000000002723 Rises=F Damp=F
 DIIS: error= 7.91D-07 at cycle  10 NSaved=  10.
 NSaved=10 IEnMin=10 EnMin= -857.242478752772     IErMin=10 ErrMin= 7.91D-07
 ErrMax= 7.91D-07  0.00D+00 EMaxC= 1.00D-01 BMatC= 1.91D-10 BMatP= 2.32D-09
 IDIUse=1 WtCom= 1.00D+00 WtEn= 0.00D+00
 Coeff-Com: -0.925D-04 0.200D-03 0.192D-03 0.159D-04-0.140D-02-0.327D-02
 Coeff-Com: -0.171D-01 0.188D-01 0.214D+00 0.788D+00
 Coeff:     -0.925D-04 0.200D-03 0.192D-03 0.159D-04-0.140D-02-0.327D-02
 Coeff:     -0.171D-01 0.188D-01 0.214D+00 0.788D+00
 Gap=     0.154 Goal=   None    Shift=    0.000
 RMSDP=5.61D-07 MaxDP=5.66D-05 DE=-2.72D-09 OVMax= 9.43D-06

 Cycle  11  Pass 1  IDiag  1:
 RMSU=  1.27D-07    CP:  1.21D+00  1.88D+00  6.59D-01  1.07D+00  1.15D+00
                    CP:  1.10D+00  1.24D+00  1.33D+00  1.26D+00  1.04D+00
 E= -857.242478752998     Delta-E=       -0.000000000226 Rises=F Damp=F
 DIIS: error= 7.00D-07 at cycle  11 NSaved=  11.
 NSaved=11 IEnMin=11 EnMin= -857.242478752998     IErMin=11 ErrMin= 7.00D-07
 ErrMax= 7.00D-07  0.00D+00 EMaxC= 1.00D-01 BMatC= 7.02D-11 BMatP= 1.91D-10
 IDIUse=1 WtCom= 1.00D+00 WtEn= 0.00D+00
 Coeff-Com: -0.155D-04 0.318D-04 0.238D-04 0.133D-03 0.349D-03 0.908D-04
 Coeff-Com: -0.926D-02-0.353D-01 0.217D-01 0.442D+00 0.580D+00
 Coeff:     -0.155D-04 0.318D-04 0.238D-04 0.133D-03 0.349D-03 0.908D-04
 Coeff:     -0.926D-02-0.353D-01 0.217D-01 0.442D+00 0.580D+00
 Gap=     0.154 Goal=   None    Shift=    0.000
 RMSDP=3.91D-07 MaxDP=3.76D-05 DE=-2.26D-10 OVMax= 3.34D-06

 Cycle  12  Pass 1  IDiag  1:
 RMSU=  4.91D-08    CP:  1.21D+00  1.88D+00  6.59D-01  1.07D+00  1.15D+00
                    CP:  1.10D+00  1.24D+00  1.34D+00  1.31D+00  1.14D+00
                    CP:  1.12D+00
 E= -857.242478753046     Delta-E=       -0.000000000049 Rises=F Damp=F
 DIIS: error= 1.31D-07 at cycle  12 NSaved=  12.
 NSaved=12 IEnMin=12 EnMin= -857.242478753046     IErMin=12 ErrMin= 1.31D-07
 ErrMax= 1.31D-07  0.00D+00 EMaxC= 1.00D-01 BMatC= 4.05D-12 BMatP= 7.02D-11
 IDIUse=1 WtCom= 1.00D+00 WtEn= 0.00D+00
 Coeff-Com:  0.776D-05-0.173D-04-0.190D-04 0.424D-04 0.275D-03 0.508D-03
 Coeff-Com: -0.461D-03-0.149D-01-0.244D-01 0.394D-01 0.213D+00 0.787D+00
 Coeff:      0.776D-05-0.173D-04-0.190D-04 0.424D-04 0.275D-03 0.508D-03
 Coeff:     -0.461D-03-0.149D-01-0.244D-01 0.394D-01 0.213D+00 0.787D+00
 Gap=     0.154 Goal=   None    Shift=    0.000
 RMSDP=6.64D-08 MaxDP=6.10D-06 DE=-4.87D-11 OVMax= 1.43D-06

 Cycle  13  Pass 1  IDiag  1:
 RMSU=  1.89D-08    CP:  1.21D+00  1.88D+00  6.59D-01  1.07D+00  1.15D+00
                    CP:  1.10D+00  1.24D+00  1.35D+00  1.32D+00  1.19D+00
                    CP:  1.29D+00  1.21D+00
 E= -857.242478753066     Delta-E=       -0.000000000019 Rises=F Damp=F
 DIIS: error= 2.13D-08 at cycle  13 NSaved=  13.
 NSaved=13 IEnMin=13 EnMin= -857.242478753066     IErMin=13 ErrMin= 2.13D-08
 ErrMax= 2.13D-08  0.00D+00 EMaxC= 1.00D-01 BMatC= 2.32D-13 BMatP= 4.05D-12
 IDIUse=1 WtCom= 1.00D+00 WtEn= 0.00D+00
 Coeff-Com:  0.220D-05-0.473D-05-0.424D-05 0.182D-05 0.252D-04 0.865D-04
 Coeff-Com:  0.581D-03-0.630D-03-0.737D-02-0.216D-01 0.813D-02 0.177D+00
 Coeff-Com:  0.844D+00
 Coeff:      0.220D-05-0.473D-05-0.424D-05 0.182D-05 0.252D-04 0.865D-04
 Coeff:      0.581D-03-0.630D-03-0.737D-02-0.216D-01 0.813D-02 0.177D+00
 Coeff:      0.844D+00
 Gap=     0.154 Goal=   None    Shift=    0.000
 RMSDP=2.29D-08 MaxDP=2.29D-06 DE=-1.91D-11 OVMax= 4.28D-07

 Cycle  14  Pass 1  IDiag  1:
 RMSU=  5.49D-09    CP:  1.21D+00  1.88D+00  6.59D-01  1.07D+00  1.15D+00
                    CP:  1.10D+00  1.24D+00  1.35D+00  1.33D+00  1.20D+00
                    CP:  1.35D+00  1.31D+00  1.17D+00
 E= -857.242478753055     Delta-E=        0.000000000011 Rises=F Damp=F
 DIIS: error= 6.84D-09 at cycle  14 NSaved=  14.
 NSaved=14 IEnMin=13 EnMin= -857.242478753066     IErMin=14 ErrMin= 6.84D-09
 ErrMax= 6.84D-09  0.00D+00 EMaxC= 1.00D-01 BMatC= 4.57D-14 BMatP= 2.32D-13
 IDIUse=1 WtCom= 1.00D+00 WtEn= 0.00D+00
 Coeff-Com: -0.207D-06 0.548D-06 0.926D-06-0.540D-05-0.325D-04-0.432D-04
 Coeff-Com:  0.321D-03 0.204D-02 0.671D-03-0.141D-01-0.316D-01-0.580D-01
 Coeff-Com:  0.294D+00 0.807D+00
 Coeff:     -0.207D-06 0.548D-06 0.926D-06-0.540D-05-0.325D-04-0.432D-04
 Coeff:      0.321D-03 0.204D-02 0.671D-03-0.141D-01-0.316D-01-0.580D-01
 Coeff:      0.294D+00 0.807D+00
 Gap=     0.154 Goal=   None    Shift=    0.000
 RMSDP=1.00D-08 MaxDP=1.24D-06 DE= 1.09D-11 OVMax= 1.99D-07

 Cycle  15  Pass 1  IDiag  1:
 RMSU=  1.86D-09    CP:  1.21D+00  1.88D+00  6.59D-01  1.07D+00  1.15D+00
                    CP:  1.10D+00  1.24D+00  1.35D+00  1.33D+00  1.20D+00
                    CP:  1.38D+00  1.37D+00  1.27D+00  1.28D+00
 E= -857.242478753080     Delta-E=       -0.000000000025 Rises=F Damp=F
 DIIS: error= 2.47D-09 at cycle  15 NSaved=  15.
 NSaved=15 IEnMin=15 EnMin= -857.242478753080     IErMin=15 ErrMin= 2.47D-09
 ErrMax= 2.47D-09  0.00D+00 EMaxC= 1.00D-01 BMatC= 2.47D-15 BMatP= 4.57D-14
 IDIUse=1 WtCom= 1.00D+00 WtEn= 0.00D+00
 Coeff-Com: -0.197D-06 0.425D-06 0.345D-06-0.373D-06-0.497D-05-0.972D-05
 Coeff-Com: -0.210D-04 0.201D-03 0.666D-03 0.935D-03-0.312D-02-0.189D-01
 Coeff-Com: -0.583D-01 0.505D-01 0.103D+01
 Coeff:     -0.197D-06 0.425D-06 0.345D-06-0.373D-06-0.497D-05-0.972D-05
 Coeff:     -0.210D-04 0.201D-03 0.666D-03 0.935D-03-0.312D-02-0.189D-01
 Coeff:     -0.583D-01 0.505D-01 0.103D+01
 Gap=     0.154 Goal=   None    Shift=    0.000
 RMSDP=2.92D-09 MaxDP=3.07D-07 DE=-2.55D-11 OVMax= 7.87D-08

 SCF Done:  E(RCAM-B3LYP) =  -857.242478753     A.U. after   15 cycles
            NFock= 15  Conv=0.29D-08     -V/T= 2.0032
 KE= 8.544793028034D+02 PE=-4.708662781850D+03 EE= 1.646799357371D+03
 Leave Link  502 at Wed Sep 30 05:15:28 2020, MaxMem=  3221225472 cpu:            1553.7 elap:             260.4
 (Enter /usr/local/Gaussian/gaussian-16-A03-avx2/g16/linda-exe/l508.exel)
 QCSCF skips out because SCF is already converged.
 Leave Link  508 at Wed Sep 30 05:15:29 2020, MaxMem=  3221225472 cpu:               0.2 elap:               0.1
 (Enter /usr/local/Gaussian/gaussian-16-A03-avx2/g16/l601.exe)
 Copying SCF densities to generalized density rwf, IOpCl= 0 IROHF=0.

 **********************************************************************

            Population analysis using the SCF density.

 **********************************************************************

 Orbital symmetries:
       Occupied  (A) (A) (A) (A) (A) (A) (A) (A) (A) (A) (A) (A)
                 (A) (A) (A) (A) (A) (A) (A) (A) (A) (A) (A) (A)
                 (A) (A) (A) (A) (A) (A) (A) (A) (A) (A) (A) (A)
                 (A) (A) (A) (A) (A) (A) (A) (A) (A) (A) (A) (A)
                 (A) (A) (A) (A) (A) (A) (A) (A) (A) (A) (A) (A)
                 (A) (A) (A) (A) (A) (A) (A) (A) (A) (A) (A) (A)
                 (A) (A) (A) (A) (A) (A) (A) (A)
       Virtual   (A) (A) (A) (A) (A) (A) (A) (A) (A) (A) (A) (A)
                 (A) (A) (A) (A) (A) (A) (A) (A) (A) (A) (A) (A)
                 (A) (A) (A) (A) (A) (A) (A) (A) (A) (A) (A) (A)
                 (A) (A) (A) (A) (A) (A) (A) (A) (A) (A) (A) (A)
                 (A) (A) (A) (A) (A) (A) (A) (A) (A) (A) (A) (A)
                 (A) (A) (A) (A) (A) (A) (A) (A) (A) (A) (A) (A)
                 (A) (A) (A) (A) (A) (A) (A) (A) (A) (A) (A) (A)
                 (A) (A) (A) (A) (A) (A) (A) (A) (A) (A) (A) (A)
                 (A) (A) (A) (A) (A) (A) (A) (A) (A) (A) (A) (A)
                 (A) (A) (A) (A) (A) (A) (A) (A) (A) (A) (A) (A)
                 (A) (A) (A) (A) (A) (A) (A) (A) (A) (A) (A) (A)
                 (A) (A) (A) (A) (A) (A) (A) (A) (A) (A) (A) (A)
                 (A) (A) (A) (A) (A) (A) (A) (A) (A) (A) (A) (A)
                 (A) (A) (A) (A) (A) (A) (A) (A) (A) (A) (A) (A)
                 (A) (A) (A) (A) (A) (A) (A) (A) (A) (A) (A) (A)
                 (A) (A) (A) (A) (A) (A) (A) (A) (A) (A) (A) (A)
                 (A) (A) (A) (A) (A) (A) (A) (A) (A) (A) (A) (A)
                 (A) (A) (A) (A) (A) (A) (A) (A) (A) (A) (A) (A)
                 (A) (A) (A) (A) (A) (A) (A) (A) (A) (A) (A) (A)
                 (A) (A) (A) (A) (A) (A) (A) (A) (A) (A) (A) (A)
                 (A) (A) (A) (A) (A) (A) (A) (A) (A) (A) (A) (A)
                 (A) (A) (A) (A) (A) (A) (A) (A) (A) (A) (A) (A)
                 (A) (A) (A) (A) (A) (A) (A) (A) (A) (A) (A) (A)
                 (A) (A) (A) (A) (A) (A) (A) (A) (A) (A) (A) (A)
                 (A) (A) (A) (A) (A) (A) (A) (A) (A) (A) (A) (A)
                 (A) (A) (A) (A) (A) (A) (A) (A) (A) (A) (A) (A)
                 (A) (A) (A) (A) (A) (A) (A) (A) (A) (A) (A) (A)
                 (A) (A) (A) (A) (A) (A) (A) (A) (A) (A) (A) (A)
                 (A) (A) (A) (A) (A) (A) (A) (A) (A) (A) (A) (A)
                 (A) (A) (A) (A) (A) (A) (A) (A) (A) (A) (A) (A)
                 (A) (A) (A) (A) (A) (A) (A) (A) (A) (A) (A) (A)
                 (A) (A) (A) (A) (A) (A) (A) (A) (A) (A) (A) (A)
                 (A) (A) (A) (A) (A) (A) (A) (A) (A) (A) (A) (A)
                 (A) (A) (A) (A) (A) (A) (A) (A) (A) (A) (A) (A)
                 (A) (A) (A) (A) (A) (A) (A) (A) (A) (A) (A) (A)
                 (A) (A) (A) (A) (A) (A) (A) (A) (A) (A) (A) (A)
                 (A) (A) (A) (A) (A) (A) (A) (A) (A) (A) (A) (A)
                 (A) (A) (A) (A) (A) (A) (A) (A) (A) (A) (A) (A)
                 (A) (A) (A) (A) (A) (A) (A) (A) (A) (A) (A) (A)
                 (A) (A) (A) (A) (A) (A) (A) (A) (A) (A) (A) (A)
                 (A) (A) (A) (A) (A) (A) (A) (A) (A) (A) (A) (A)
                 (A) (A) (A) (A) (A) (A) (A) (A) (A) (A) (A) (A)
                 (A) (A) (A) (A) (A) (A) (A) (A) (A) (A) (A) (A)
                 (A) (A) (A) (A) (A) (A) (A) (A) (A) (A) (A) (A)
                 (A) (A) (A) (A) (A) (A) (A) (A) (A) (A) (A) (A)
                 (A) (A) (A) (A) (A) (A) (A) (A) (A) (A) (A) (A)
                 (A) (A) (A) (A) (A) (A) (A) (A) (A) (A) (A) (A)
                 (A) (A) (A) (A) (A)
 The electronic state is 1-A.
 Alpha  occ. eigenvalues --  -18.95895 -18.92823 -10.19730 -10.19340 -10.19078
 Alpha  occ. eigenvalues --  -10.19053 -10.18821 -10.18522 -10.18200 -10.17816
 Alpha  occ. eigenvalues --  -10.17384 -10.16846 -10.16232 -10.15568 -10.15436
 Alpha  occ. eigenvalues --  -10.14525 -10.13274 -10.11894 -10.09875 -10.08593
 Alpha  occ. eigenvalues --   -0.89478  -0.86407  -0.84682  -0.82845  -0.80850
 Alpha  occ. eigenvalues --   -0.78696  -0.76598  -0.76018  -0.73711  -0.70960
 Alpha  occ. eigenvalues --   -0.68039  -0.65141  -0.62997  -0.62484  -0.61583
 Alpha  occ. eigenvalues --   -0.60627  -0.59328  -0.57300  -0.54213  -0.53288
 Alpha  occ. eigenvalues --   -0.51632  -0.49902  -0.48068  -0.47023  -0.46147
 Alpha  occ. eigenvalues --   -0.45010  -0.44176  -0.43582  -0.42380  -0.42177
 Alpha  occ. eigenvalues --   -0.41234  -0.40466  -0.40131  -0.39325  -0.38475
 Alpha  occ. eigenvalues --   -0.37769  -0.37114  -0.36839  -0.36457  -0.36177
 Alpha  occ. eigenvalues --   -0.35919  -0.35593  -0.35213  -0.34763  -0.34272
 Alpha  occ. eigenvalues --   -0.33658  -0.32985  -0.32866  -0.31618  -0.31006
 Alpha  occ. eigenvalues --   -0.30681  -0.28973  -0.28190  -0.27967  -0.25634
 Alpha  occ. eigenvalues --   -0.24180  -0.22333  -0.11789  -0.10136  -0.08811
 Alpha virt. eigenvalues --    0.06615   0.07692   0.07930   0.08521   0.09174
 Alpha virt. eigenvalues --    0.09302   0.10100   0.10673   0.10908   0.11518
 Alpha virt. eigenvalues --    0.11739   0.12014   0.12247   0.12656   0.13132
 Alpha virt. eigenvalues --    0.13463   0.13692   0.13885   0.14532   0.14928
 Alpha virt. eigenvalues --    0.15221   0.15644   0.15750   0.16447   0.16924
 Alpha virt. eigenvalues --    0.17151   0.17367   0.17733   0.18041   0.18491
 Alpha virt. eigenvalues --    0.19042   0.19316   0.19439   0.20072   0.20583
 Alpha virt. eigenvalues --    0.20793   0.21273   0.21437   0.21988   0.22467
 Alpha virt. eigenvalues --    0.23236   0.23328   0.23653   0.24043   0.24209
 Alpha virt. eigenvalues --    0.24609   0.25173   0.25469   0.25693   0.26023
 Alpha virt. eigenvalues --    0.26134   0.26519   0.26945   0.27247   0.27749
 Alpha virt. eigenvalues --    0.27850   0.27970   0.28254   0.28336   0.28554
 Alpha virt. eigenvalues --    0.29064   0.29283   0.29587   0.30076   0.30462
 Alpha virt. eigenvalues --    0.30678   0.30815   0.31075   0.31310   0.31456
 Alpha virt. eigenvalues --    0.31538   0.31891   0.32179   0.32413   0.32706
 Alpha virt. eigenvalues --    0.32933   0.33140   0.33570   0.33693   0.33919
 Alpha virt. eigenvalues --    0.34155   0.34576   0.34747   0.35044   0.35208
 Alpha virt. eigenvalues --    0.35537   0.36082   0.36282   0.36510   0.36641
 Alpha virt. eigenvalues --    0.36705   0.37216   0.37634   0.37710   0.38075
 Alpha virt. eigenvalues --    0.38473   0.38881   0.39161   0.39587   0.40021
 Alpha virt. eigenvalues --    0.40493   0.41030   0.41412   0.41917   0.42175
 Alpha virt. eigenvalues --    0.42764   0.43216   0.43335   0.44115   0.44330
 Alpha virt. eigenvalues --    0.44730   0.45034   0.45364   0.46185   0.46490
 Alpha virt. eigenvalues --    0.46690   0.47233   0.47700   0.47869   0.47881
 Alpha virt. eigenvalues --    0.48202   0.49265   0.49278   0.49490   0.50246
 Alpha virt. eigenvalues --    0.50520   0.50621   0.51344   0.51431   0.51752
 Alpha virt. eigenvalues --    0.52878   0.53023   0.53863   0.54335   0.54841
 Alpha virt. eigenvalues --    0.55490   0.56169   0.56576   0.57256   0.57637
 Alpha virt. eigenvalues --    0.58196   0.58984   0.59950   0.60833   0.61069
 Alpha virt. eigenvalues --    0.62259   0.62869   0.63327   0.63662   0.64500
 Alpha virt. eigenvalues --    0.66015   0.66635   0.68078   0.68525   0.68788
 Alpha virt. eigenvalues --    0.69195   0.70386   0.70907   0.71345   0.72174
 Alpha virt. eigenvalues --    0.72546   0.72931   0.73208   0.73773   0.74170
 Alpha virt. eigenvalues --    0.74335   0.75522   0.75620   0.76054   0.76244
 Alpha virt. eigenvalues --    0.76870   0.77109   0.77234   0.77839   0.77997
 Alpha virt. eigenvalues --    0.78121   0.78432   0.79150   0.79382   0.79547
 Alpha virt. eigenvalues --    0.80107   0.80271   0.80745   0.80799   0.81261
 Alpha virt. eigenvalues --    0.81707   0.81949   0.82651   0.83220   0.83603
 Alpha virt. eigenvalues --    0.83714   0.84035   0.84255   0.84991   0.85616
 Alpha virt. eigenvalues --    0.86084   0.86864   0.87197   0.87371   0.87658
 Alpha virt. eigenvalues --    0.88075   0.88192   0.88566   0.89036   0.89735
 Alpha virt. eigenvalues --    0.89920   0.90793   0.91172   0.91324   0.91562
 Alpha virt. eigenvalues --    0.92004   0.92451   0.93008   0.93695   0.94252
 Alpha virt. eigenvalues --    0.94777   0.95838   0.96676   0.97864   0.98764
 Alpha virt. eigenvalues --    1.01142   1.03028   1.04331   1.05151   1.05225
 Alpha virt. eigenvalues --    1.07447   1.09110   1.09933   1.10459   1.11377
 Alpha virt. eigenvalues --    1.11626   1.12716   1.13132   1.13813   1.14428
 Alpha virt. eigenvalues --    1.15142   1.15904   1.16712   1.17891   1.18273
 Alpha virt. eigenvalues --    1.18858   1.20227   1.21240   1.24544   1.26447
 Alpha virt. eigenvalues --    1.27620   1.31228   1.32991   1.34802   1.35228
 Alpha virt. eigenvalues --    1.35609   1.36923   1.37270   1.37834   1.37982
 Alpha virt. eigenvalues --    1.38249   1.38563   1.39087   1.39733   1.40471
 Alpha virt. eigenvalues --    1.41063   1.41562   1.42062   1.43162   1.43816
 Alpha virt. eigenvalues --    1.44317   1.45651   1.46738   1.47282   1.48722
 Alpha virt. eigenvalues --    1.50884   1.51256   1.53805   1.56654   1.56863
 Alpha virt. eigenvalues --    1.57341   1.58530   1.60086   1.61671   1.62553
 Alpha virt. eigenvalues --    1.63133   1.63528   1.64296   1.64701   1.65460
 Alpha virt. eigenvalues --    1.66081   1.67115   1.67239   1.67848   1.67942
 Alpha virt. eigenvalues --    1.68374   1.68813   1.69862   1.71021   1.71221
 Alpha virt. eigenvalues --    1.72265   1.72634   1.73494   1.74859   1.75444
 Alpha virt. eigenvalues --    1.75959   1.76704   1.77040   1.77589   1.78136
 Alpha virt. eigenvalues --    1.78178   1.78839   1.79708   1.79869   1.80299
 Alpha virt. eigenvalues --    1.80711   1.80955   1.81467   1.81641   1.82661
 Alpha virt. eigenvalues --    1.83032   1.83338   1.84277   1.84469   1.85011
 Alpha virt. eigenvalues --    1.85098   1.85470   1.85714   1.86272   1.86795
 Alpha virt. eigenvalues --    1.86916   1.87365   1.88113   1.88383   1.88885
 Alpha virt. eigenvalues --    1.89569   1.90194   1.90675   1.92063   1.92960
 Alpha virt. eigenvalues --    1.93583   1.94319   1.94488   1.95515   1.96767
 Alpha virt. eigenvalues --    1.97200   1.97816   1.98507   1.99234   1.99887
 Alpha virt. eigenvalues --    2.00584   2.00917   2.01618   2.02075   2.04201
 Alpha virt. eigenvalues --    2.04475   2.04990   2.06185   2.06975   2.08340
 Alpha virt. eigenvalues --    2.09739   2.13322   2.14032   2.15038   2.16172
 Alpha virt. eigenvalues --    2.17009   2.19292   2.20946   2.21460   2.22413
 Alpha virt. eigenvalues --    2.23627   2.25704   2.26811   2.27167   2.29000
 Alpha virt. eigenvalues --    2.29440   2.31038   2.31695   2.32467   2.33894
 Alpha virt. eigenvalues --    2.34050   2.34901   2.35917   2.36869   2.37149
 Alpha virt. eigenvalues --    2.38854   2.39440   2.40750   2.40805   2.42269
 Alpha virt. eigenvalues --    2.42662   2.43485   2.44820   2.45866   2.46223
 Alpha virt. eigenvalues --    2.47380   2.49159   2.49315   2.49992   2.50413
 Alpha virt. eigenvalues --    2.51786   2.52166   2.52713   2.54084   2.54831
 Alpha virt. eigenvalues --    2.55359   2.56272   2.57243   2.57450   2.57929
 Alpha virt. eigenvalues --    2.58380   2.59450   2.60953   2.61433   2.61707
 Alpha virt. eigenvalues --    2.62572   2.62879   2.65213   2.66069   2.66527
 Alpha virt. eigenvalues --    2.68069   2.69176   2.69297   2.70113   2.71367
 Alpha virt. eigenvalues --    2.71589   2.72790   2.72930   2.73802   2.74278
 Alpha virt. eigenvalues --    2.75101   2.75252   2.76062   2.76715   2.77016
 Alpha virt. eigenvalues --    2.77658   2.77909   2.78665   2.79128   2.79792
 Alpha virt. eigenvalues --    2.80235   2.80639   2.80942   2.81426   2.81633
 Alpha virt. eigenvalues --    2.82532   2.83151   2.83767   2.84248   2.85158
 Alpha virt. eigenvalues --    2.85634   2.86331   2.86445   2.87106   2.87681
 Alpha virt. eigenvalues --    2.87950   2.89123   2.89726   2.90012   2.91085
 Alpha virt. eigenvalues --    2.92794   2.93164   2.93725   2.95141   2.96695
 Alpha virt. eigenvalues --    2.97382   2.97651   2.98296   2.99853   3.01473
 Alpha virt. eigenvalues --    3.02030   3.02412   3.02681   3.03624   3.04393
 Alpha virt. eigenvalues --    3.05071   3.05459   3.06345   3.07783   3.08829
 Alpha virt. eigenvalues --    3.10321   3.11744   3.12523   3.14209   3.15491
 Alpha virt. eigenvalues --    3.16569   3.17181   3.18577   3.19492   3.20652
 Alpha virt. eigenvalues --    3.21590   3.21879   3.22498   3.24308   3.26383
 Alpha virt. eigenvalues --    3.27075   3.28906   3.33204   3.37912   3.42487
 Alpha virt. eigenvalues --    3.45916   3.46586   3.46788   3.48218   3.50833
 Alpha virt. eigenvalues --    3.53618   3.56018   3.58292   3.60772   3.61526
 Alpha virt. eigenvalues --    3.79715   3.86910   3.95255   3.96590   3.97802
 Alpha virt. eigenvalues --    3.97807   3.98953   4.00199   4.01204   4.02285
 Alpha virt. eigenvalues --    4.03071   4.03927   4.04585   4.05358   4.06189
 Alpha virt. eigenvalues --    4.07171   4.08316   4.10199   4.11231   4.15287
 Alpha virt. eigenvalues --    4.23652   4.25022   4.26521   4.28108   4.29914
 Alpha virt. eigenvalues --    4.31999   4.34236   4.36159   4.36687   4.39023
 Alpha virt. eigenvalues --    4.40681   4.41877   4.44165   4.44623   4.46896
 Alpha virt. eigenvalues --    4.47418   4.50786   4.52281   5.33299   5.37414
 Alpha virt. eigenvalues --    5.40774   5.46773   5.71030   6.06888  23.94922
 Alpha virt. eigenvalues --   24.00534  24.02623  24.03524  24.04560  24.05604
 Alpha virt. eigenvalues --   24.06246  24.06858  24.07715  24.08262  24.08963
 Alpha virt. eigenvalues --   24.09610  24.10434  24.11431  24.12633  24.13218
 Alpha virt. eigenvalues --   24.14722  24.16438  50.17746  50.23495
          Condensed to atoms (all electrons):
 Mulliken charges:
               1
     1  C   -0.144627
     2  O   -0.401329
     3  O   -0.570557
     4  C   -0.431657
     5  H    0.145191
     6  H    0.136494
     7  C   -0.296702
     8  H    0.163187
     9  H    0.152124
    10  C   -0.360745
    11  H    0.132552
    12  H    0.135026
    13  C   -0.179841
    14  H    0.141472
    15  H    0.142594
    16  C   -0.021840
    17  H    0.138984
    18  H    0.138116
    19  C   -0.154939
    20  H    0.141963
    21  H    0.142198
    22  C   -0.278460
    23  H    0.141385
    24  H    0.140821
    25  C   -0.441991
    26  H    0.142701
    27  H    0.142982
    28  C   -0.426789
    29  H    0.142558
    30  H    0.142395
    31  C   -0.317716
    32  H    0.143292
    33  H    0.143413
    34  C   -0.128471
    35  H    0.143050
    36  H    0.142946
    37  C   -0.022861
    38  H    0.143302
    39  H    0.143409
    40  C   -0.101465
    41  H    0.143386
    42  H    0.143290
    43  C   -0.318116
    44  H    0.142869
    45  H    0.142908
    46  C   -0.489938
    47  H    0.140683
    48  H    0.140621
    49  C   -0.289227
    50  H    0.136848
    51  H    0.136895
    52  C   -0.564505
    53  H    0.133086
    54  H    0.129540
    55  H    0.129495
 Sum of Mulliken charges =  -1.00000
 Mulliken charges with hydrogens summed into heavy atoms:
               1
     1  C   -0.144627
     2  O   -0.401329
     3  O   -0.570557
     4  C   -0.149972
     7  C    0.018609
    10  C   -0.093166
    13  C    0.104225
    16  C    0.255260
    19  C    0.129222
    22  C    0.003745
    25  C   -0.156308
    28  C   -0.141837
    31  C   -0.031011
    34  C    0.157525
    37  C    0.263850
    40  C    0.185211
    43  C   -0.032340
    46  C   -0.208634
    49  C   -0.015484
    52  C   -0.172384
 Electronic spatial extent (au):  <R**2>=          29347.2359
 Charge=             -1.0000 electrons
 Dipole moment (field-independent basis, Debye):
    X=             48.1769    Y=             -3.2351    Z=             -1.4157  Tot=             48.3062
 Quadrupole moment (field-independent basis, Debye-Ang):
   XX=           -657.8817   YY=           -145.6185   ZZ=           -135.2981
   XY=             34.9934   XZ=             16.6599   YZ=              2.8606
 Traceless Quadrupole moment (field-independent basis, Debye-Ang):
   XX=           -344.9489   YY=            167.3142   ZZ=            177.6347
   XY=             34.9934   XZ=             16.6599   YZ=              2.8606
 Octapole moment (field-independent basis, Debye-Ang**2):
  XXX=           5279.8682  YYY=            -10.2715  ZZZ=             -2.3940  XYY=             89.1050
  XXY=           -335.6406  XXZ=           -186.0560  XZZ=             53.3493  YZZ=              0.5068
  YYZ=              2.6592  XYZ=            -41.2084
 Hexadecapole moment (field-independent basis, Debye-Ang**3):
[...]
 Alpha virt. eigenvalues --    1.38279   1.38779   1.38858   1.39307   1.39958
 Alpha virt. eigenvalues --    1.40583   1.41069   1.41752   1.43003   1.43355
 Alpha virt. eigenvalues --    1.43921   1.44217   1.45156   1.46707   1.47382
 Alpha virt. eigenvalues --    1.50108   1.50355   1.52788   1.55606   1.56400
 Alpha virt. eigenvalues --    1.56633   1.58026   1.59590   1.60963   1.62483
 Alpha virt. eigenvalues --    1.62717   1.63423   1.64819   1.64912   1.65650
 Alpha virt. eigenvalues --    1.66274   1.66653   1.67445   1.68201   1.68332
 Alpha virt. eigenvalues --    1.68518   1.69428   1.70198   1.70862   1.71464
 Alpha virt. eigenvalues --    1.71750   1.72168   1.73335   1.74343   1.75401
 Alpha virt. eigenvalues --    1.75728   1.75960   1.76456   1.77086   1.77915
 Alpha virt. eigenvalues --    1.77986   1.78653   1.79477   1.79506   1.79768
 Alpha virt. eigenvalues --    1.80389   1.81049   1.81211   1.81596   1.82325
 Alpha virt. eigenvalues --    1.82582   1.83292   1.83651   1.84011   1.84072
 Alpha virt. eigenvalues --    1.84600   1.84827   1.85330   1.85776   1.86422
 Alpha virt. eigenvalues --    1.86646   1.86849   1.87280   1.87706   1.88431
 Alpha virt. eigenvalues --    1.88710   1.89421   1.89932   1.90652   1.91828
 Alpha virt. eigenvalues --    1.92898   1.93946   1.94721   1.95256   1.96494
 Alpha virt. eigenvalues --    1.97133   1.97646   1.97960   1.98952   1.99194
 Alpha virt. eigenvalues --    2.00468   2.01413   2.01948   2.02994   2.03449
 Alpha virt. eigenvalues --    2.04082   2.05395   2.05997   2.08139   2.08403
 Alpha virt. eigenvalues --    2.09171   2.10361   2.13306   2.14777   2.15796
 Alpha virt. eigenvalues --    2.16146   2.17576   2.18546   2.21128   2.21426
 Alpha virt. eigenvalues --    2.22333   2.23626   2.25795   2.26641   2.26803
 Alpha virt. eigenvalues --    2.28470   2.29711   2.30595   2.31266   2.32039
 Alpha virt. eigenvalues --    2.32733   2.33408   2.34538   2.35368   2.36115
 Alpha virt. eigenvalues --    2.36922   2.38861   2.39199   2.39535   2.40792
 Alpha virt. eigenvalues --    2.41333   2.42281   2.43026   2.43414   2.44847
 Alpha virt. eigenvalues --    2.45611   2.46040   2.46719   2.47747   2.48061
 Alpha virt. eigenvalues --    2.49664   2.50332   2.50786   2.51603   2.52387
 Alpha virt. eigenvalues --    2.52739   2.53090   2.54778   2.55473   2.55897
 Alpha virt. eigenvalues --    2.56019   2.56713   2.58725   2.58879   2.60501
 Alpha virt. eigenvalues --    2.61032   2.61277   2.63028   2.64102   2.64802
 Alpha virt. eigenvalues --    2.64837   2.66504   2.66910   2.68085   2.68278
 Alpha virt. eigenvalues --    2.68540   2.69635   2.70303   2.71454   2.72117
 Alpha virt. eigenvalues --    2.72590   2.73062   2.73646   2.73946   2.74559
 Alpha virt. eigenvalues --    2.75170   2.75831   2.76846   2.77196   2.77730
 Alpha virt. eigenvalues --    2.78085   2.78900   2.79696   2.80175   2.81603
 Alpha virt. eigenvalues --    2.82495   2.82811   2.83929   2.84285   2.84625
 Alpha virt. eigenvalues --    2.84801   2.85550   2.86528   2.86827   2.87375
 Alpha virt. eigenvalues --    2.88189   2.88434   2.88541   2.89522   2.90024
 Alpha virt. eigenvalues --    2.90865   2.91243   2.92112   2.92583   2.93844
 Alpha virt. eigenvalues --    2.94675   2.95384   2.96745   2.98620   2.99208
 Alpha virt. eigenvalues --    3.00285   3.01843   3.02815   3.04031   3.04664
 Alpha virt. eigenvalues --    3.05323   3.06299   3.07070   3.07869   3.09212
 Alpha virt. eigenvalues --    3.10349   3.10738   3.11925   3.13033   3.14243
 Alpha virt. eigenvalues --    3.15352   3.17249   3.19502   3.21524   3.22174
 Alpha virt. eigenvalues --    3.23214   3.24289   3.24889   3.26256   3.28976
 Alpha virt. eigenvalues --    3.29635   3.34369   3.38132   3.39764   3.44964
 Alpha virt. eigenvalues --    3.49570   3.53206   3.54710   3.57002   3.59207
 Alpha virt. eigenvalues --    3.59733   3.62384   3.65047   3.68897   3.71466
 Alpha virt. eigenvalues --    3.87031   3.87964   3.88749   3.90322   3.91271
 Alpha virt. eigenvalues --    3.92018   3.92854   3.93829   3.95174   3.96127
 Alpha virt. eigenvalues --    3.96961   3.97863   3.98186   3.98876   3.99661
 Alpha virt. eigenvalues --    4.00802   4.01967   4.04091   4.06377   4.07906
 Alpha virt. eigenvalues --    4.17909   4.19120   4.20522   4.22109   4.24013
 Alpha virt. eigenvalues --    4.26334   4.28990   4.31295   4.33711   4.34819
 Alpha virt. eigenvalues --    4.37315   4.41339   4.45395   4.49226   4.52422
 Alpha virt. eigenvalues --    4.54697   4.57219   4.63055   5.34537   5.36274
 Alpha virt. eigenvalues --    5.44072   5.48794   5.86490   6.16010  23.97911
 Alpha virt. eigenvalues --   23.99493  23.99931  24.00705  24.01477  24.01821
 Alpha virt. eigenvalues --   24.02615  24.03296  24.03826  24.04536  24.05302
 Alpha virt. eigenvalues --   24.06221  24.07249  24.07552  24.08500  24.09204
 Alpha virt. eigenvalues --   24.12576  24.15413  50.19447  50.29954
          Condensed to atoms (all electrons):
 Mulliken charges:
               1
     1  C    0.056504
     2  O   -0.488826
     3  O   -0.485444
     4  C   -0.542915
     5  H    0.117090
     6  H    0.131424
     7  C   -0.467830
     8  H    0.170170
     9  H    0.126401
    10  C   -0.260372
    11  H    0.128327
    12  H    0.128087
    13  C   -0.097309
    14  H    0.141007
    15  H    0.136666
    16  C   -0.037688
    17  H    0.136326
    18  H    0.136879
    19  C   -0.172580
    20  H    0.140666
    21  H    0.140081
    22  C   -0.307571
    23  H    0.139967
    24  H    0.140309
    25  C   -0.400365
    26  H    0.141944
    27  H    0.141460
    28  C   -0.404017
    29  H    0.141489
    30  H    0.141613
    31  C   -0.308439
    32  H    0.142411
    33  H    0.142218
    34  C   -0.170868
    35  H    0.142046
    36  H    0.142132
    37  C   -0.063828
    38  H    0.142345
    39  H    0.142226
    40  C   -0.110450
    41  H    0.142197
    42  H    0.142280
    43  C   -0.275497
    44  H    0.141398
    45  H    0.141352
    46  C   -0.446393
    47  H    0.139395
    48  H    0.139446
    49  C   -0.264463
    50  H    0.136000
    51  H    0.135950
    52  C   -0.603770
    53  H    0.136527
    54  H    0.132129
    55  H    0.132160
 Sum of Mulliken charges =  -1.00000
 Mulliken charges with hydrogens summed into heavy atoms:
               1
     1  C    0.056504
     2  O   -0.488826
     3  O   -0.485444
     4  C   -0.294400
     7  C   -0.171258
    10  C   -0.003958
    13  C    0.180364
    16  C    0.235517
    19  C    0.108168
    22  C   -0.027295
    25  C   -0.116961
    28  C   -0.120914
    31  C   -0.023810
    34  C    0.113311
    37  C    0.220743
    40  C    0.174027
    43  C    0.007253
    46  C   -0.167553
    49  C    0.007487
    52  C   -0.202954
 Electronic spatial extent (au):  <R**2>=          30225.3795
 Charge=             -1.0000 electrons
 Dipole moment (field-independent basis, Debye):
    X=             48.1668    Y=             -2.1716    Z=              0.2043  Tot=             48.2161
 Quadrupole moment (field-independent basis, Debye-Ang):
   XX=           -659.9390   YY=           -145.9642   ZZ=           -133.4500
   XY=             22.1799   XZ=             -0.8190   YZ=              1.7894
 Traceless Quadrupole moment (field-independent basis, Debye-Ang):
   XX=           -346.8212   YY=            167.1535   ZZ=            179.6677
   XY=             22.1799   XZ=             -0.8190   YZ=              1.7894
 Octapole moment (field-independent basis, Debye-Ang**2):
  XXX=           5460.5016  YYY=             -6.2800  ZZZ=             -0.1929  XYY=             82.6204
  XXY=           -191.6436  XXZ=             -0.6641  XZZ=              8.1638  YZZ=             -0.4871
  YYZ=              2.7614  XYZ=            -28.5451
 Hexadecapole moment (field-independent basis, Debye-Ang**3):
 XXXX=        -102783.9426 YYYY=           -575.3300 ZZZZ=           -290.0403 XXXY=           1951.0728
 XXXZ=            194.9095 YYYX=             72.5693 YYYZ=             -4.8260 ZZZX=             -0.8946
 ZZZY=              3.7422 XXYY=          -7957.3012 XXZZ=          -6965.4463 YYZZ=           -134.5227
 XXYZ=            244.4086 YYXZ=            -24.7202 ZZXY=              1.6885
 N-N= 1.342095544019D+03 E-N=-4.692017056320D+03  KE= 8.538719248341D+02
 No NMR shielding tensors so no spin-rotation constants.
 Leave Link  601 at Wed Sep 30 06:56:51 2020, MaxMem=  3221225472 cpu:               9.0 elap:               1.9
 (Enter /usr/local/Gaussian/gaussian-16-A03-avx2/g16/linda-exe/l602.exel)
 FitSet:  NAtFit=    55 NAtPot=    55 NAtFrz=     0 MDM=    59 TotChg=  -1.00000
 Breneman (CHELPG) radii used.
 Generate Potential Derived Charges using the Breneman model, NDens= 1.
 Grid spacing= 0.300 Box extension= 2.800
 NStep X,Y,Z=   99     29     26   Total possible points=       74646
 Number of Points to Fit=   29589

 **********************************************************************

            Electrostatic Properties Using The SCF Density

 **********************************************************************

       Atomic Center    1 is at  -9.966865  0.197554 -0.042640
       Atomic Center    2 is at -10.985606 -0.449947  0.281285
       Atomic Center    3 is at  -9.880230  1.392495 -0.400991
       Atomic Center    4 is at  -8.637448 -0.615094 -0.029180
       Atomic Center    5 is at  -8.606621 -1.172127 -0.975214
       Atomic Center    6 is at  -8.704954 -1.365393  0.764718
       Atomic Center    7 is at  -7.373448  0.221689  0.109908
       Atomic Center    8 is at  -7.418503  1.030098 -0.624575
       Atomic Center    9 is at  -7.374047  0.714388  1.089751
       Atomic Center   10 is at  -6.082862 -0.577702 -0.052875
       Atomic Center   11 is at  -6.077973 -1.057335 -1.040402
       Atomic Center   12 is at  -6.061623 -1.396227  0.678759
       Atomic Center   13 is at  -4.817302  0.261796  0.101425
       Atomic Center   14 is at  -4.835069  1.075443 -0.633664
       Atomic Center   15 is at  -4.825320  0.745657  1.085904
       Atomic Center   16 is at  -3.524914 -0.534197 -0.056706
       Atomic Center   17 is at  -3.510060 -1.348183  0.678662
       Atomic Center   18 is at  -3.517012 -1.017218 -1.041651
       Atomic Center   19 is at  -2.261637  0.307361  0.099892
       Atomic Center   20 is at  -2.278168  1.122261 -0.633905
       Atomic Center   21 is at  -2.268791  0.788584  1.085438
       Atomic Center   22 is at  -0.970216 -0.489131 -0.061798
       Atomic Center   23 is at  -0.954663 -1.304611  0.671504
       Atomic Center   24 is at  -0.963461 -0.969278 -1.047863
       Atomic Center   25 is at   0.292239  0.353159  0.096008
       Atomic Center   26 is at   0.275591  1.169265 -0.636349
       Atomic Center   27 is at   0.285624  0.832192  1.082510
       Atomic Center   28 is at   1.583146 -0.443566 -0.067777
       Atomic Center   29 is at   1.598668 -1.260555  0.663672
       Atomic Center   30 is at   1.589946 -0.921250 -1.054921
       Atomic Center   31 is at   2.845198  0.398809  0.092196
       Atomic Center   32 is at   2.828998  1.216152 -0.638734
       Atomic Center   33 is at   2.838301  0.875877  1.079585
       Atomic Center   34 is at   4.135859 -0.398026 -0.072595
       Atomic Center   35 is at   4.151588 -1.215518  0.658204
       Atomic Center   36 is at   4.142546 -0.874806 -1.060122
       Atomic Center   37 is at   5.397680  0.444552  0.087854
       Atomic Center   38 is at   5.381839  1.261806 -0.643144
       Atomic Center   39 is at   5.390509  0.921577  1.075232
       Atomic Center   40 is at   6.688205 -0.352562 -0.076448
       Atomic Center   41 is at   6.703815 -1.169750  0.654629
       Atomic Center   42 is at   6.695109 -0.829624 -1.063800
       Atomic Center   43 is at   7.949943  0.490167  0.083948
       Atomic Center   44 is at   7.934131  1.307337 -0.647147
       Atomic Center   45 is at   7.942846  0.967216  1.071315
       Atomic Center   46 is at   9.240382 -0.306741 -0.080314
       Atomic Center   47 is at   9.257127 -1.124149  0.650711
       Atomic Center   48 is at   9.248469 -0.783953 -1.067745
       Atomic Center   49 is at  10.502810  0.535251  0.080009
       Atomic Center   50 is at  10.486200  1.351293 -0.650762
       Atomic Center   51 is at  10.494747  1.011504  1.066591
       Atomic Center   52 is at  11.786358 -0.271495 -0.085989
       Atomic Center   53 is at  12.673227  0.355075  0.033452
       Atomic Center   54 is at  11.844809 -1.074601  0.653803
       Atomic Center   55 is at  11.836102 -0.732466 -1.076298
   29589 points will be used for fitting atomic charges
 Fitting point charges to electrostatic potential
 Charges from ESP fit, RMS=   0.00241 RRMS=   0.02883:
 ESP charges:
               1
     1  C    0.989459
     2  O   -0.888666
     3  O   -0.874775
     4  C   -0.193302
     5  H   -0.009296
     6  H   -0.011823
     7  C    0.190008
     8  H   -0.032045
     9  H   -0.062885
    10  C    0.016932
    11  H   -0.029813
    12  H   -0.033494
    13  C    0.026618
    14  H   -0.030148
    15  H   -0.028092
    16  C    0.096187
    17  H   -0.043249
    18  H   -0.042556
    19  C    0.053464
    20  H   -0.029082
    21  H   -0.032037
    22  C    0.045124
    23  H   -0.029320
    24  H   -0.029345
    25  C    0.069750
    26  H   -0.031477
    27  H   -0.031603
    28  C    0.032734
    29  H   -0.023243
    30  H   -0.024499
    31  C    0.072934
    32  H   -0.029527
    33  H   -0.031062
    34  C    0.031080
    35  H   -0.021986
    36  H   -0.022495
    37  C    0.031168
    38  H   -0.019796
    39  H   -0.020276
    40  C    0.110770
    41  H   -0.035672
    42  H   -0.036586
    43  C   -0.027960
    44  H   -0.012570
    45  H   -0.013256
    46  C    0.045193
    47  H   -0.021993
    48  H   -0.021811
    49  C    0.208262
    50  H   -0.049538
    51  H   -0.049907
    52  C   -0.201897
    53  H    0.038766
    54  H    0.034353
    55  H    0.034280
 Sum of ESP charges =  -1.00000
 ESP charges with hydrogens summed into heavy atoms:
               1
     1  C    0.989459
     2  O   -0.888666
     3  O   -0.874775
     4  C   -0.214421
     7  C    0.095078
    10  C   -0.046375
    13  C   -0.031622
    16  C    0.010382
    19  C   -0.007655
    22  C   -0.013540
    25  C    0.006670
    28  C   -0.015007
    31  C    0.012344
    34  C   -0.013401
    37  C   -0.008905
    40  C    0.038512
    43  C   -0.053785
    46  C    0.001389
    49  C    0.108817
    52  C   -0.094498
 Charge=  -1.00000 Dipole=    47.7670    -2.1590     0.1903 Tot=    47.8161
 -----------------------------------------------------------------

              Electrostatic Properties (Atomic Units)

 -----------------------------------------------------------------
    Center     Electric         -------- Electric Field --------
               Potential          X             Y             Z
 -----------------------------------------------------------------
    1 Atom    -14.882905
    2 Atom    -22.631753
    3 Atom    -22.629358
    4 Atom    -14.945632
    5 Atom     -1.274932
    6 Atom     -1.283603
    7 Atom    -14.924124
    8 Atom     -1.274443
    9 Atom     -1.268653
   10 Atom    -14.896143
   11 Atom     -1.241496
   12 Atom     -1.241856
   13 Atom    -14.879908
   14 Atom     -1.226186
   15 Atom     -1.225728
   16 Atom    -14.865368
   17 Atom     -1.211370
   18 Atom     -1.211441
   19 Atom    -14.855053
   20 Atom     -1.201410
   21 Atom     -1.201298
   22 Atom    -14.846361
   23 Atom     -1.192657
   24 Atom     -1.192693
   25 Atom    -14.839733
   26 Atom     -1.186178
   27 Atom     -1.186140
   28 Atom    -14.834082
   29 Atom     -1.180514
   30 Atom     -1.180528
   31 Atom    -14.829584
   32 Atom     -1.176089
   33 Atom     -1.176070
   34 Atom    -14.825682
   35 Atom     -1.172180
   36 Atom     -1.172189
   37 Atom    -14.822471
   38 Atom     -1.169007
   39 Atom     -1.168999
   40 Atom    -14.819613
   41 Atom     -1.166171
   42 Atom     -1.166178
   43 Atom    -14.817264
   44 Atom     -1.163737
   45 Atom     -1.163731
   46 Atom    -14.815382
   47 Atom     -1.161601
   48 Atom     -1.161605
   49 Atom    -14.810883
   50 Atom     -1.160235
   51 Atom     -1.160231
   52 Atom    -14.816453
   53 Atom     -1.152126
   54 Atom     -1.152945
   55 Atom     -1.152948
 -----------------------------------------------------------------
 Leave Link  602 at Wed Sep 30 06:56:56 2020, MaxMem=  3221225472 cpu:              15.9 elap:               3.2
 (Enter /usr/local/Gaussian/gaussian-16-A03-avx2/g16/l9999.exe)
 1\1\GINC-NODE-027\SP\RCAM-B3LYP\6-311+G(d,p)\C18H35O2(1-)\ROOT\30-Sep-
 2020\0\\#P CAM-B3LYP/6-311+G** Guess=Read Geom=Check Pop=CHelpG\\C17H3
 5COO charge distribution\\-1,1\C,0,-0.8016268571,-1.049913,-0.32010891
 85\O,0,-0.1611635719,-0.1703239248,-0.935045165\O,0,-0.4365743986,-2.2
 013015199,0.0036910131\C,0,-2.2626569123,-0.6599108347,0.0556828844\H,
 0,-2.8675876793,-0.8239877531,-0.8461780018\H,0,-2.2887050226,0.417014
 3587,0.2488984863\C,0,-2.8587238858,-1.4424470169,1.2174009262\H,0,-2.
 6934724848,-2.5067835698,1.0305868554\H,0,-2.2970587149,-1.2137111891,
 2.1312151413\C,0,-4.3414522558,-1.1645022783,1.4527738376\H,0,-4.90313
 26234,-1.4087589842,0.5416567099\H,0,-4.492916036,-0.0898851061,1.6200
 460389\C,0,-4.9323836822,-1.9399960071,2.6273459479\H,0,-4.7872003577,
 -3.0136427026,2.4573543853\H,0,-4.3672058352,-1.700291977,3.5364669295
 \C,0,-6.4134270873,-1.6621010324,2.8685153458\H,0,-6.5562920333,-0.587
 4964253,3.0369599622\H,0,-6.978275735,-1.9027145638,1.9593733962\C,0,-
 7.0007539636,-2.437338232,4.0443839574\H,0,-6.855560522,-3.5113681719,
 3.8765416492\H,0,-6.4371504261,-2.1951129765,4.9535627738\C,0,-8.48244
 38128,-2.1610867484,4.2822770019\H,0,-8.6272753091,-1.0867427731,4.448
 9750114\H,0,-9.045394435,-2.4043839566,3.3729887656\C,0,-9.0683485009,
 -2.9359879013,5.4588780173\H,0,-8.9220100292,-4.0100304476,5.292529440
 8\H,0,-8.5058836071,-2.6915945903,6.3680574596\C,0,-10.5504346893,-2.6
 607616591,5.6949000949\H,0,-10.6965723504,-1.5864013578,5.8595959815\H
 ,0,-11.1126399962,-2.9066177423,4.7859650954\C,0,-11.1352385287,-3.434
 3157404,6.87285715\H,0,-10.9882060151,-4.5085033865,6.7083151524\H,0,-
 10.5731594385,-3.187818919,7.7816388343\C,0,-12.6175154371,-3.15958132
 61,7.1079810217\H,0,-12.7642759105,-2.0852766684,7.2721054876\H,0,-13.
 1793354452,-3.4063466601,6.1991146503\C,0,-13.2018741745,-3.9329553527
 ,8.2862384945\H,0,-13.0552003304,-5.0071812262,8.1218066828\H,0,-12.63
 95951255,-3.6863834782,9.1948444289\C,0,-14.6840047718,-3.6576811612,8
 .5215122872\H,0,-14.8304323551,-2.583415066,8.6859041452\H,0,-15.24607
 41467,-3.9041613562,7.6127636557\C,0,-15.2682425131,-4.4311883839,9.69
 97546905\H,0,-15.1216645001,-5.5054155669,9.5352317808\H,0,-14.7060172
 888,-4.1846544352,10.6084031038\C,0,-16.7501939425,-4.1560315016,9.935
 1007286\H,0,-16.8976692401,-3.0818348682,10.0999786288\H,0,-17.3133273
 613,-4.4026588901,9.0268764371\C,0,-17.335364441,-4.9291444305,11.1133
 416597\H,0,-17.1885500507,-6.0021637848,10.9481104345\H,0,-16.77298491
 89,-4.682312518,12.0205508429\C,0,-18.816856002,-4.6462890709,11.33931
 65009\H,0,-19.2092942677,-5.2120249074,12.1874492156\H,0,-18.988790286
 6,-3.5851474495,11.5395802529\H,0,-19.4074435428,-4.9146444089,10.4590
 4794\\Version=ES64L-G16RevA.03\State=1-A\HF=-857.3001722\RMSD=9.128e-0
 9\Dipole=-15.8617767,-2.7188897,10.0429312\Quadrupole=-141.8120181,118
 .8008081,23.01121,-45.1564452,172.1889689,33.1183757\PG=C01 [X(C18H35O
 2)]\\@


 THE POLHOLDE ROLLS WITHOUT SLIPPING ON THE HERPOLHOLDE LYING IN
 THE INVARIABLE PLANE.
 H.GOLDSTEIN, "CLASSICAL MECHANICS", PG 161
 Job cpu time:       0 days  0 hours  0 minutes 14.1 seconds.
 Elapsed time:       0 days  0 hours  0 minutes 42.7 seconds.
 File lengths (MBytes):  RWF=    218 Int=      0 D2E=      0 Chk=     34 Scr=      1
 Normal termination of Gaussian 16 at Wed Sep 30 06:56:56 2020.
