 Set GAUSS_PDEF to "6".
 Set GAUSS_MDEF to "24576MB".
 Set GAUSS_WDEF to "node-021:1,node-023:1".
 Set GAUSS_SDEF to "ssh".
 Entering Gaussian System, Link 0=g16
 Initial command:
 /usr/local/Gaussian/gaussian-16-A03-avx2/g16/l1.exe "/tmp/168286.bcm-head.cm.cluster/Gau-13314.inp" -scrdir="/tmp/168286.bcm-head.cm.cluster/"
 Default linda workers: node-021:1,node-023:1
 Default is to use   6 SMP processors on each worker.
 Entering Link 1 = /usr/local/Gaussian/gaussian-16-A03-avx2/g16/l1.exe PID=     13315.
  
 Copyright (c) 1988,1990,1992,1993,1995,1998,2003,2009,2016,
            Gaussian, Inc.  All Rights Reserved.
  
 This is part of the Gaussian(R) 16 program.  It is based on
 the Gaussian(R) 09 system (copyright 2009, Gaussian, Inc.),
 the Gaussian(R) 03 system (copyright 2003, Gaussian, Inc.),
 the Gaussian(R) 98 system (copyright 1998, Gaussian, Inc.),
 the Gaussian(R) 94 system (copyright 1995, Gaussian, Inc.),
 the Gaussian 92(TM) system (copyright 1992, Gaussian, Inc.),
 the Gaussian 90(TM) system (copyright 1990, Gaussian, Inc.),
 the Gaussian 88(TM) system (copyright 1988, Gaussian, Inc.),
 the Gaussian 86(TM) system (copyright 1986, Carnegie Mellon
 University), and the Gaussian 82(TM) system (copyright 1983,
 Carnegie Mellon University). Gaussian is a federally registered
 trademark of Gaussian, Inc.
  
 This software contains proprietary and confidential information,
 including trade secrets, belonging to Gaussian, Inc.
  
 This software is provided under written license and may be
 used, copied, transmitted, or stored only in accord with that
 written license.
  
 The following legend is applicable only to US Government
 contracts under FAR:
  
                    RESTRICTED RIGHTS LEGEND
  
 Use, reproduction and disclosure by the US Government is
 subject to restrictions as set forth in subparagraphs (a)
 and (c) of the Commercial Computer Software - Restricted
 Rights clause in FAR 52.227-19.
  
 Gaussian, Inc.
 340 Quinnipiac St., Bldg. 40, Wallingford CT 06492
  
  
 ---------------------------------------------------------------
 Warning -- This program may not be used in any manner that
 competes with the business of Gaussian, Inc. or will provide
 assistance to any competitor of Gaussian, Inc.  The licensee
 of this program is prohibited from giving any competitor of
 Gaussian, Inc. access to this program.  By using this program,
 the user acknowledges that Gaussian, Inc. is engaged in the
 business of creating and licensing software in the field of
 computational chemistry and represents and warrants to the
 licensee that it is not a competitor of Gaussian, Inc. and that
 it will not use this program in any manner prohibited above.
 ---------------------------------------------------------------
  

 Cite this work as:
 Gaussian 16, Revision A.03,
 M. J. Frisch, G. W. Trucks, H. B. Schlegel, G. E. Scuseria, 
 M. A. Robb, J. R. Cheeseman, G. Scalmani, V. Barone, 
 G. A. Petersson, H. Nakatsuji, X. Li, M. Caricato, A. V. Marenich, 
 J. Bloino, B. G. Janesko, R. Gomperts, B. Mennucci, H. P. Hratchian, 
 J. V. Ortiz, A. F. Izmaylov, J. L. Sonnenberg, D. Williams-Young, 
 F. Ding, F. Lipparini, F. Egidi, J. Goings, B. Peng, A. Petrone, 
 T. Henderson, D. Ranasinghe, V. G. Zakrzewski, J. Gao, N. Rega, 
 G. Zheng, W. Liang, M. Hada, M. Ehara, K. Toyota, R. Fukuda, 
 J. Hasegawa, M. Ishida, T. Nakajima, Y. Honda, O. Kitao, H. Nakai, 
 T. Vreven, K. Throssell, J. A. Montgomery, Jr., J. E. Peralta, 
 F. Ogliaro, M. J. Bearpark, J. J. Heyd, E. N. Brothers, K. N. Kudin, 
 V. N. Staroverov, T. A. Keith, R. Kobayashi, J. Normand, 
 K. Raghavachari, A. P. Rendell, J. C. Burant, S. S. Iyengar, 
 J. Tomasi, M. Cossi, J. M. Millam, M. Klene, C. Adamo, R. Cammi, 
 J. W. Ochterski, R. L. Martin, K. Morokuma, O. Farkas, 
 J. B. Foresman, and D. J. Fox, Gaussian, Inc., Wallingford CT, 2016.
 
 ******************************************
 Gaussian 16:  ES64L-G16RevA.03 25-Dec-2016
                30-Sep-2020 
 ******************************************
 %chk=CTAB
 SetLPE:  input flags="-env GAUSS_SCRDIR=/tmp/168286.bcm-head.cm.cluster "
 SetLPE:    new flags="-env GAUSS_SCRDIR=/tmp/168286.bcm-head.cm.cluster -opt 'Tsnet.Node.lindarsharg: ssh'  -nodelist 'node-021.hpc.cc.spbu.ru node-023.hpc.cc.spbu.ru' -env GAUSS_MDEF=3221225472 -env GAUSS_EXEDIR="/usr/local/Gaussian/gaussian-16-A03-avx2/g16/bsd:/usr/local/Gaussian/gaussian-16-A03-avx2/g16""
 Will use up to    2 processors via Linda.
 Default route: Maxdisk=213GB Cachesize=163840
 ----------------------------------
 #P CAM-B3LYP/6-311+G** Opt SCF=XQC
 ----------------------------------
 1/4=163840,18=20,19=15,26=3,38=1/1,3;
 2/4=163840,9=110,12=2,17=6,18=5,40=1/2;
 3/4=163840,5=4,6=6,7=111,11=2,25=1,30=1,71=1,74=-40/1,2,3;
 4/4=163840/1;
 5/4=163840,5=2,8=3,13=1,38=5/2,8;
 6/4=163840,7=2,8=2,9=2,10=2,28=1/1;
 7/4=163840/1,2,3,16;
 1/4=163840,18=20,19=15,26=3/3(2);
 2/4=163840,9=110/2;
 99/4=163840/99;
 2/4=163840,9=110/2;
 3/4=163840,5=4,6=6,7=111,11=2,25=1,30=1,71=1,74=-40/1,2,3;
 4/4=163840,5=5,16=3,69=1/1;
 5/4=163840,5=2,8=3,13=1,38=5/2,8;
 7/4=163840/1,2,3,16;
 1/4=163840,18=20,19=15,26=3/3(-5);
 2/4=163840,9=110/2;
 6/4=163840,7=2,8=2,9=2,10=2,19=2,28=1/1;
 99/4=163840,9=1/99;
 Leave Link    1 at Wed Sep 30 05:10:46 2020, MaxMem=           0 cpu:               0.4 elap:               0.1
 (Enter /usr/local/Gaussian/gaussian-16-A03-avx2/g16/l101.exe)
 --------------------------
 CTAB geometry optimization
 --------------------------
 Symbolic Z-matrix:
 Charge =  1 Multiplicity = 1
 C                    -1.57347  -1.05019   0. 
 H                    -1.93015  -1.55628   0.87267 
 H                    -1.93013  -0.04138   0.00196 
 H                    -1.93015  -1.55289  -0.87463 
 C                     0.47984  -2.50214   0. 
 H                     0.12286  -3.00665  -0.87346 
 H                     1.54984  -2.50215  -0.00038 
 H                     0.12348  -3.00643   0.87384 
 C                     0.47987  -0.32425  -1.2574 
 H                     0.12301   0.68448  -1.25753 
 H                     1.54987  -0.32405  -1.25728 
 H                     0.12341  -0.8288   -2.13106 
 C                     0.47987  -0.32425   1.2574 
 H                     0.12304  -0.82854   2.13106 
 H                     0.12338   0.68461   1.25731 
 C                     2.01987  -0.32452   1.25755 
 H                     2.3767    0.17939   0.38367 
 H                     2.37636  -1.33338   1.25809 
 C                     2.53321   0.40199   2.51463 
 H                     2.1763   -0.10186   3.38851 
 H                     2.1768    1.41088   2.51404 
 C                     4.07321   0.4016    2.51485 
 H                     4.43013   0.90546   1.64099 
 H                     4.42962  -0.6073    2.51541 
 C                     4.58655   1.12807   3.77195 
 H                     4.22964   0.62421   4.64581 
 H                     4.23014   2.13697   3.77139 
 C                     6.12655   1.12768   3.77217 
 H                     6.48347   1.63156   2.89831 
 H                     6.48297   0.11879   3.77272 
 C                     6.6399    1.85415   5.02928 
 H                     6.28298   1.35028   5.90313 
 H                     6.28348   2.86305   5.02872 
 C                     8.1799    1.85376   5.02949 
 H                     8.53681   2.35764   4.15564 
 H                     8.53631   0.84487   5.03004 
 C                     8.69324   2.58022   6.2866 
 H                     8.33633   2.07635   7.16046 
 H                     8.33682   3.58912   6.28605 
 C                     10.23324   2.57984   6.28681 
 H                     10.59015   3.08372   5.41296 
 H                     10.58965   1.57094   6.28736 
 C                     10.74658   3.3063    7.54393 
 H                     10.38967   2.80242   8.41778 
 H                     10.39017   4.31519   7.54338 
 C                     12.28658   3.30591   7.54414 
 H                     12.64349   3.8098    6.67029 
 H                     12.643    2.29702   7.54469 
 C                     12.79992   4.03237   8.80125 
 H                     12.44301   3.52849   9.6751 
 H                     12.44351   5.04127   8.80071 
 C                     14.33992   4.03199   8.80146 
 H                     14.69683   4.53588   7.92761 
 H                     14.69634   3.0231    8.80201 
 C                     14.85327   4.75845   10.05858 
 H                     14.49636   4.25456   10.93243 
 H                     14.49685   5.76734   10.05803 
 C                     16.39327   4.75807   10.05879 
 H                     16.75017   5.26195   9.18493 
 H                     16.74994   5.26281   10.93224 
 H                     16.74968   3.74917   10.05933 
 N                    -0.03347  -1.05021   0. 
 
 ITRead=  0  0  0  0  0  0  0  0  0  0  0  0  0  0  0  0  0  0  0  0
 ITRead=  0  0  0  0  0  0  0  0  0  0  0  0  0  0  0  0  0  0  0  0
 ITRead=  0  0  0  0  0  0  0  0  0  0  0  0  0  0  0  0  0  0  0  0
 ITRead=  0  0
 MicOpt= -1 -1 -1 -1 -1 -1 -1 -1 -1 -1 -1 -1 -1 -1 -1 -1 -1 -1 -1 -1
 MicOpt= -1 -1 -1 -1 -1 -1 -1 -1 -1 -1 -1 -1 -1 -1 -1 -1 -1 -1 -1 -1
 MicOpt= -1 -1 -1 -1 -1 -1 -1 -1 -1 -1 -1 -1 -1 -1 -1 -1 -1 -1 -1 -1
 MicOpt= -1 -1
 NAtoms=     62 NQM=       62 NQMF=       0 NMMI=      0 NMMIF=      0
                NMic=       0 NMicF=      0.
                    Isotopes and Nuclear Properties:
 (Nuclear quadrupole moments (NQMom) in fm**2, nuclear magnetic moments (NMagM)
  in nuclear magnetons)

  Atom         1           2           3           4           5           6           7           8           9          10
 IAtWgt=          12           1           1           1          12           1           1           1          12           1
 AtmWgt=  12.0000000   1.0078250   1.0078250   1.0078250  12.0000000   1.0078250   1.0078250   1.0078250  12.0000000   1.0078250
 NucSpn=           0           1           1           1           0           1           1           1           0           1
 AtZEff=  -0.0000000  -0.0000000  -0.0000000  -0.0000000  -0.0000000  -0.0000000  -0.0000000  -0.0000000  -0.0000000  -0.0000000
 NQMom=    0.0000000   0.0000000   0.0000000   0.0000000   0.0000000   0.0000000   0.0000000   0.0000000   0.0000000   0.0000000
 NMagM=    0.0000000   2.7928460   2.7928460   2.7928460   0.0000000   2.7928460   2.7928460   2.7928460   0.0000000   2.7928460
 AtZNuc=   6.0000000   1.0000000   1.0000000   1.0000000   6.0000000   1.0000000   1.0000000   1.0000000   6.0000000   1.0000000

  Atom        11          12          13          14          15          16          17          18          19          20
 IAtWgt=           1           1          12           1           1          12           1           1          12           1
 AtmWgt=   1.0078250   1.0078250  12.0000000   1.0078250   1.0078250  12.0000000   1.0078250   1.0078250  12.0000000   1.0078250
 NucSpn=           1           1           0           1           1           0           1           1           0           1
 AtZEff=  -0.0000000  -0.0000000  -0.0000000  -0.0000000  -0.0000000  -0.0000000  -0.0000000  -0.0000000  -0.0000000  -0.0000000
 NQMom=    0.0000000   0.0000000   0.0000000   0.0000000   0.0000000   0.0000000   0.0000000   0.0000000   0.0000000   0.0000000
 NMagM=    2.7928460   2.7928460   0.0000000   2.7928460   2.7928460   0.0000000   2.7928460   2.7928460   0.0000000   2.7928460
 AtZNuc=   1.0000000   1.0000000   6.0000000   1.0000000   1.0000000   6.0000000   1.0000000   1.0000000   6.0000000   1.0000000

  Atom        21          22          23          24          25          26          27          28          29          30
 IAtWgt=           1          12           1           1          12           1           1          12           1           1
 AtmWgt=   1.0078250  12.0000000   1.0078250   1.0078250  12.0000000   1.0078250   1.0078250  12.0000000   1.0078250   1.0078250
 NucSpn=           1           0           1           1           0           1           1           0           1           1
 AtZEff=  -0.0000000  -0.0000000  -0.0000000  -0.0000000  -0.0000000  -0.0000000  -0.0000000  -0.0000000  -0.0000000  -0.0000000
 NQMom=    0.0000000   0.0000000   0.0000000   0.0000000   0.0000000   0.0000000   0.0000000   0.0000000   0.0000000   0.0000000
 NMagM=    2.7928460   0.0000000   2.7928460   2.7928460   0.0000000   2.7928460   2.7928460   0.0000000   2.7928460   2.7928460
 AtZNuc=   1.0000000   6.0000000   1.0000000   1.0000000   6.0000000   1.0000000   1.0000000   6.0000000   1.0000000   1.0000000

  Atom        31          32          33          34          35          36          37          38          39          40
 IAtWgt=          12           1           1          12           1           1          12           1           1          12
 AtmWgt=  12.0000000   1.0078250   1.0078250  12.0000000   1.0078250   1.0078250  12.0000000   1.0078250   1.0078250  12.0000000
 NucSpn=           0           1           1           0           1           1           0           1           1           0
 AtZEff=  -0.0000000  -0.0000000  -0.0000000  -0.0000000  -0.0000000  -0.0000000  -0.0000000  -0.0000000  -0.0000000  -0.0000000
 NQMom=    0.0000000   0.0000000   0.0000000   0.0000000   0.0000000   0.0000000   0.0000000   0.0000000   0.0000000   0.0000000
 NMagM=    0.0000000   2.7928460   2.7928460   0.0000000   2.7928460   2.7928460   0.0000000   2.7928460   2.7928460   0.0000000
 AtZNuc=   6.0000000   1.0000000   1.0000000   6.0000000   1.0000000   1.0000000   6.0000000   1.0000000   1.0000000   6.0000000

  Atom        41          42          43          44          45          46          47          48          49          50
 IAtWgt=           1           1          12           1           1          12           1           1          12           1
 AtmWgt=   1.0078250   1.0078250  12.0000000   1.0078250   1.0078250  12.0000000   1.0078250   1.0078250  12.0000000   1.0078250
 NucSpn=           1           1           0           1           1           0           1           1           0           1
 AtZEff=  -0.0000000  -0.0000000  -0.0000000  -0.0000000  -0.0000000  -0.0000000  -0.0000000  -0.0000000  -0.0000000  -0.0000000
 NQMom=    0.0000000   0.0000000   0.0000000   0.0000000   0.0000000   0.0000000   0.0000000   0.0000000   0.0000000   0.0000000
 NMagM=    2.7928460   2.7928460   0.0000000   2.7928460   2.7928460   0.0000000   2.7928460   2.7928460   0.0000000   2.7928460
 AtZNuc=   1.0000000   1.0000000   6.0000000   1.0000000   1.0000000   6.0000000   1.0000000   1.0000000   6.0000000   1.0000000

  Atom        51          52          53          54          55          56          57          58          59          60
 IAtWgt=           1          12           1           1          12           1           1          12           1           1
 AtmWgt=   1.0078250  12.0000000   1.0078250   1.0078250  12.0000000   1.0078250   1.0078250  12.0000000   1.0078250   1.0078250
 NucSpn=           1           0           1           1           0           1           1           0           1           1
 AtZEff=  -0.0000000  -0.0000000  -0.0000000  -0.0000000  -0.0000000  -0.0000000  -0.0000000  -0.0000000  -0.0000000  -0.0000000
 NQMom=    0.0000000   0.0000000   0.0000000   0.0000000   0.0000000   0.0000000   0.0000000   0.0000000   0.0000000   0.0000000
 NMagM=    2.7928460   0.0000000   2.7928460   2.7928460   0.0000000   2.7928460   2.7928460   0.0000000   2.7928460   2.7928460
 AtZNuc=   1.0000000   6.0000000   1.0000000   1.0000000   6.0000000   1.0000000   1.0000000   6.0000000   1.0000000   1.0000000

  Atom        61          62
 IAtWgt=           1          14
 AtmWgt=   1.0078250  14.0030740
 NucSpn=           1           2
 AtZEff=  -0.0000000  -0.0000000
 NQMom=    0.0000000   2.0440000
 NMagM=    2.7928460   0.4037610
 AtZNuc=   1.0000000   7.0000000
 Leave Link  101 at Wed Sep 30 05:10:47 2020, MaxMem=  3221225472 cpu:               2.0 elap:               0.4
 (Enter /usr/local/Gaussian/gaussian-16-A03-avx2/g16/l103.exe)

 GradGradGradGradGradGradGradGradGradGradGradGradGradGradGradGradGradGrad
 Berny optimization.
 Initialization pass.
                           ----------------------------
                           !    Initial Parameters    !
                           ! (Angstroms and Degrees)  !
 --------------------------                            --------------------------
 ! Name  Definition              Value          Derivative Info.                !
 --------------------------------------------------------------------------------
 ! R1    R(1,2)                  1.07           estimate D2E/DX2                !
 ! R2    R(1,3)                  1.07           estimate D2E/DX2                !
 ! R3    R(1,4)                  1.07           estimate D2E/DX2                !
 ! R4    R(1,62)                 1.54           estimate D2E/DX2                !
 ! R5    R(5,6)                  1.07           estimate D2E/DX2                !
 ! R6    R(5,7)                  1.07           estimate D2E/DX2                !
 ! R7    R(5,8)                  1.07           estimate D2E/DX2                !
 ! R8    R(5,62)                 1.54           estimate D2E/DX2                !
 ! R9    R(9,10)                 1.07           estimate D2E/DX2                !
 ! R10   R(9,11)                 1.07           estimate D2E/DX2                !
 ! R11   R(9,12)                 1.07           estimate D2E/DX2                !
 ! R12   R(9,62)                 1.54           estimate D2E/DX2                !
 ! R13   R(13,14)                1.07           estimate D2E/DX2                !
 ! R14   R(13,15)                1.07           estimate D2E/DX2                !
 ! R15   R(13,16)                1.54           estimate D2E/DX2                !
 ! R16   R(13,62)                1.54           estimate D2E/DX2                !
 ! R17   R(16,17)                1.07           estimate D2E/DX2                !
 ! R18   R(16,18)                1.07           estimate D2E/DX2                !
 ! R19   R(16,19)                1.54           estimate D2E/DX2                !
 ! R20   R(19,20)                1.07           estimate D2E/DX2                !
 ! R21   R(19,21)                1.07           estimate D2E/DX2                !
 ! R22   R(19,22)                1.54           estimate D2E/DX2                !
 ! R23   R(22,23)                1.07           estimate D2E/DX2                !
 ! R24   R(22,24)                1.07           estimate D2E/DX2                !
 ! R25   R(22,25)                1.54           estimate D2E/DX2                !
 ! R26   R(25,26)                1.07           estimate D2E/DX2                !
 ! R27   R(25,27)                1.07           estimate D2E/DX2                !
 ! R28   R(25,28)                1.54           estimate D2E/DX2                !
 ! R29   R(28,29)                1.07           estimate D2E/DX2                !
 ! R30   R(28,30)                1.07           estimate D2E/DX2                !
 ! R31   R(28,31)                1.54           estimate D2E/DX2                !
 ! R32   R(31,32)                1.07           estimate D2E/DX2                !
 ! R33   R(31,33)                1.07           estimate D2E/DX2                !
 ! R34   R(31,34)                1.54           estimate D2E/DX2                !
 ! R35   R(34,35)                1.07           estimate D2E/DX2                !
 ! R36   R(34,36)                1.07           estimate D2E/DX2                !
 ! R37   R(34,37)                1.54           estimate D2E/DX2                !
 ! R38   R(37,38)                1.07           estimate D2E/DX2                !
 ! R39   R(37,39)                1.07           estimate D2E/DX2                !
 ! R40   R(37,40)                1.54           estimate D2E/DX2                !
 ! R41   R(40,41)                1.07           estimate D2E/DX2                !
 ! R42   R(40,42)                1.07           estimate D2E/DX2                !
 ! R43   R(40,43)                1.54           estimate D2E/DX2                !
 ! R44   R(43,44)                1.07           estimate D2E/DX2                !
 ! R45   R(43,45)                1.07           estimate D2E/DX2                !
 ! R46   R(43,46)                1.54           estimate D2E/DX2                !
 ! R47   R(46,47)                1.07           estimate D2E/DX2                !
 ! R48   R(46,48)                1.07           estimate D2E/DX2                !
 ! R49   R(46,49)                1.54           estimate D2E/DX2                !
 ! R50   R(49,50)                1.07           estimate D2E/DX2                !
 ! R51   R(49,51)                1.07           estimate D2E/DX2                !
 ! R52   R(49,52)                1.54           estimate D2E/DX2                !
 ! R53   R(52,53)                1.07           estimate D2E/DX2                !
 ! R54   R(52,54)                1.07           estimate D2E/DX2                !
 ! R55   R(52,55)                1.54           estimate D2E/DX2                !
 ! R56   R(55,56)                1.07           estimate D2E/DX2                !
 ! R57   R(55,57)                1.07           estimate D2E/DX2                !
 ! R58   R(55,58)                1.54           estimate D2E/DX2                !
 ! R59   R(58,59)                1.07           estimate D2E/DX2                !
 ! R60   R(58,60)                1.07           estimate D2E/DX2                !
 ! R61   R(58,61)                1.07           estimate D2E/DX2                !
 ! A1    A(2,1,3)              109.4713         estimate D2E/DX2                !
 ! A2    A(2,1,4)              109.4712         estimate D2E/DX2                !
 ! A3    A(2,1,62)             109.4712         estimate D2E/DX2                !
 ! A4    A(3,1,4)              109.4712         estimate D2E/DX2                !
 ! A5    A(3,1,62)             109.4712         estimate D2E/DX2                !
 ! A6    A(4,1,62)             109.4712         estimate D2E/DX2                !
 ! A7    A(6,5,7)              109.4713         estimate D2E/DX2                !
 ! A8    A(6,5,8)              109.4712         estimate D2E/DX2                !
 ! A9    A(6,5,62)             109.4712         estimate D2E/DX2                !
 ! A10   A(7,5,8)              109.4712         estimate D2E/DX2                !
 ! A11   A(7,5,62)             109.4712         estimate D2E/DX2                !
 ! A12   A(8,5,62)             109.4712         estimate D2E/DX2                !
 ! A13   A(10,9,11)            109.4712         estimate D2E/DX2                !
 ! A14   A(10,9,12)            109.4712         estimate D2E/DX2                !
 ! A15   A(10,9,62)            109.4712         estimate D2E/DX2                !
 ! A16   A(11,9,12)            109.4712         estimate D2E/DX2                !
 ! A17   A(11,9,62)            109.4712         estimate D2E/DX2                !
 ! A18   A(12,9,62)            109.4712         estimate D2E/DX2                !
 ! A19   A(14,13,15)           109.4712         estimate D2E/DX2                !
 ! A20   A(14,13,16)           109.4713         estimate D2E/DX2                !
 ! A21   A(14,13,62)           109.4712         estimate D2E/DX2                !
 ! A22   A(15,13,16)           109.4712         estimate D2E/DX2                !
 ! A23   A(15,13,62)           109.4712         estimate D2E/DX2                !
 ! A24   A(16,13,62)           109.4712         estimate D2E/DX2                !
 ! A25   A(13,16,17)           109.4712         estimate D2E/DX2                !
 ! A26   A(13,16,18)           109.4712         estimate D2E/DX2                !
 ! A27   A(13,16,19)           109.4712         estimate D2E/DX2                !
 ! A28   A(17,16,18)           109.4712         estimate D2E/DX2                !
 ! A29   A(17,16,19)           109.4713         estimate D2E/DX2                !
 ! A30   A(18,16,19)           109.4712         estimate D2E/DX2                !
 ! A31   A(16,19,20)           109.4712         estimate D2E/DX2                !
 ! A32   A(16,19,21)           109.4712         estimate D2E/DX2                !
 ! A33   A(16,19,22)           109.4712         estimate D2E/DX2                !
 ! A34   A(20,19,21)           109.4712         estimate D2E/DX2                !
 ! A35   A(20,19,22)           109.4713         estimate D2E/DX2                !
 ! A36   A(21,19,22)           109.4712         estimate D2E/DX2                !
 ! A37   A(19,22,23)           109.4712         estimate D2E/DX2                !
 ! A38   A(19,22,24)           109.4712         estimate D2E/DX2                !
 ! A39   A(19,22,25)           109.4712         estimate D2E/DX2                !
 ! A40   A(23,22,24)           109.4712         estimate D2E/DX2                !
 ! A41   A(23,22,25)           109.4713         estimate D2E/DX2                !
 ! A42   A(24,22,25)           109.4712         estimate D2E/DX2                !
 ! A43   A(22,25,26)           109.4712         estimate D2E/DX2                !
 ! A44   A(22,25,27)           109.4712         estimate D2E/DX2                !
 ! A45   A(22,25,28)           109.4712         estimate D2E/DX2                !
 ! A46   A(26,25,27)           109.4712         estimate D2E/DX2                !
 ! A47   A(26,25,28)           109.4713         estimate D2E/DX2                !
 ! A48   A(27,25,28)           109.4712         estimate D2E/DX2                !
 ! A49   A(25,28,29)           109.4712         estimate D2E/DX2                !
 ! A50   A(25,28,30)           109.4712         estimate D2E/DX2                !
 ! A51   A(25,28,31)           109.4712         estimate D2E/DX2                !
 ! A52   A(29,28,30)           109.4712         estimate D2E/DX2                !
 ! A53   A(29,28,31)           109.4713         estimate D2E/DX2                !
 ! A54   A(30,28,31)           109.4712         estimate D2E/DX2                !
 ! A55   A(28,31,32)           109.4712         estimate D2E/DX2                !
 ! A56   A(28,31,33)           109.4712         estimate D2E/DX2                !
 ! A57   A(28,31,34)           109.4712         estimate D2E/DX2                !
 ! A58   A(32,31,33)           109.4712         estimate D2E/DX2                !
 ! A59   A(32,31,34)           109.4713         estimate D2E/DX2                !
 ! A60   A(33,31,34)           109.4712         estimate D2E/DX2                !
 ! A61   A(31,34,35)           109.4712         estimate D2E/DX2                !
 ! A62   A(31,34,36)           109.4712         estimate D2E/DX2                !
 ! A63   A(31,34,37)           109.4712         estimate D2E/DX2                !
 ! A64   A(35,34,36)           109.4712         estimate D2E/DX2                !
 ! A65   A(35,34,37)           109.4713         estimate D2E/DX2                !
 ! A66   A(36,34,37)           109.4712         estimate D2E/DX2                !
 ! A67   A(34,37,38)           109.4712         estimate D2E/DX2                !
 ! A68   A(34,37,39)           109.4712         estimate D2E/DX2                !
 ! A69   A(34,37,40)           109.4712         estimate D2E/DX2                !
 ! A70   A(38,37,39)           109.4712         estimate D2E/DX2                !
 ! A71   A(38,37,40)           109.4713         estimate D2E/DX2                !
 ! A72   A(39,37,40)           109.4712         estimate D2E/DX2                !
 ! A73   A(37,40,41)           109.4712         estimate D2E/DX2                !
 ! A74   A(37,40,42)           109.4712         estimate D2E/DX2                !
 ! A75   A(37,40,43)           109.4712         estimate D2E/DX2                !
 ! A76   A(41,40,42)           109.4712         estimate D2E/DX2                !
 ! A77   A(41,40,43)           109.4713         estimate D2E/DX2                !
 ! A78   A(42,40,43)           109.4712         estimate D2E/DX2                !
 ! A79   A(40,43,44)           109.4712         estimate D2E/DX2                !
 ! A80   A(40,43,45)           109.4712         estimate D2E/DX2                !
 ! A81   A(40,43,46)           109.4712         estimate D2E/DX2                !
 ! A82   A(44,43,45)           109.4712         estimate D2E/DX2                !
 ! A83   A(44,43,46)           109.4713         estimate D2E/DX2                !
 ! A84   A(45,43,46)           109.4712         estimate D2E/DX2                !
 ! A85   A(43,46,47)           109.4712         estimate D2E/DX2                !
 ! A86   A(43,46,48)           109.4712         estimate D2E/DX2                !
 ! A87   A(43,46,49)           109.4712         estimate D2E/DX2                !
 ! A88   A(47,46,48)           109.4712         estimate D2E/DX2                !
 ! A89   A(47,46,49)           109.4713         estimate D2E/DX2                !
 ! A90   A(48,46,49)           109.4712         estimate D2E/DX2                !
 ! A91   A(46,49,50)           109.4712         estimate D2E/DX2                !
 ! A92   A(46,49,51)           109.4712         estimate D2E/DX2                !
 ! A93   A(46,49,52)           109.4712         estimate D2E/DX2                !
 ! A94   A(50,49,51)           109.4712         estimate D2E/DX2                !
 ! A95   A(50,49,52)           109.4713         estimate D2E/DX2                !
 ! A96   A(51,49,52)           109.4712         estimate D2E/DX2                !
 ! A97   A(49,52,53)           109.4712         estimate D2E/DX2                !
 ! A98   A(49,52,54)           109.4712         estimate D2E/DX2                !
 ! A99   A(49,52,55)           109.4712         estimate D2E/DX2                !
 ! A100  A(53,52,54)           109.4712         estimate D2E/DX2                !
 ! A101  A(53,52,55)           109.4713         estimate D2E/DX2                !
 ! A102  A(54,52,55)           109.4712         estimate D2E/DX2                !
 ! A103  A(52,55,56)           109.4712         estimate D2E/DX2                !
 ! A104  A(52,55,57)           109.4712         estimate D2E/DX2                !
 ! A105  A(52,55,58)           109.4712         estimate D2E/DX2                !
 ! A106  A(56,55,57)           109.4712         estimate D2E/DX2                !
 ! A107  A(56,55,58)           109.4713         estimate D2E/DX2                !
 ! A108  A(57,55,58)           109.4712         estimate D2E/DX2                !
 ! A109  A(55,58,59)           109.4712         estimate D2E/DX2                !
 ! A110  A(55,58,60)           109.4712         estimate D2E/DX2                !
 ! A111  A(55,58,61)           109.4712         estimate D2E/DX2                !
 ! A112  A(59,58,60)           109.4713         estimate D2E/DX2                !
 ! A113  A(59,58,61)           109.4712         estimate D2E/DX2                !
 ! A114  A(60,58,61)           109.4712         estimate D2E/DX2                !
 ! A115  A(1,62,5)             109.4712         estimate D2E/DX2                !
 ! A116  A(1,62,9)             109.4712         estimate D2E/DX2                !
 ! A117  A(1,62,13)            109.4712         estimate D2E/DX2                !
 ! A118  A(5,62,9)             109.4712         estimate D2E/DX2                !
 ! A119  A(5,62,13)            109.4712         estimate D2E/DX2                !
 ! A120  A(9,62,13)            109.4713         estimate D2E/DX2                !
 ! D1    D(2,1,62,5)            59.8889         estimate D2E/DX2                !
 ! D2    D(2,1,62,9)           179.8889         estimate D2E/DX2                !
 ! D3    D(2,1,62,13)          -60.1111         estimate D2E/DX2                !
 ! D4    D(3,1,62,5)           179.8889         estimate D2E/DX2                !
 ! D5    D(3,1,62,9)           -60.1111         estimate D2E/DX2                !
 ! D6    D(3,1,62,13)           59.8889         estimate D2E/DX2                !
 ! D7    D(4,1,62,5)           -60.1111         estimate D2E/DX2                !
 ! D8    D(4,1,62,9)            59.8889         estimate D2E/DX2                !
 ! D9    D(4,1,62,13)          179.8889         estimate D2E/DX2                !
 ! D10   D(6,5,62,1)            59.9786         estimate D2E/DX2                !
 ! D11   D(6,5,62,9)           -60.0214         estimate D2E/DX2                !
 ! D12   D(6,5,62,13)          179.9785         estimate D2E/DX2                !
 ! D13   D(7,5,62,1)           179.9786         estimate D2E/DX2                !
 ! D14   D(7,5,62,9)            59.9786         estimate D2E/DX2                !
 ! D15   D(7,5,62,13)          -60.0214         estimate D2E/DX2                !
 ! D16   D(8,5,62,1)           -60.0214         estimate D2E/DX2                !
 ! D17   D(8,5,62,9)           179.9786         estimate D2E/DX2                !
 ! D18   D(8,5,62,13)           59.9786         estimate D2E/DX2                !
 ! D19   D(10,9,62,1)           59.9855         estimate D2E/DX2                !
 ! D20   D(10,9,62,5)          179.9855         estimate D2E/DX2                !
 ! D21   D(10,9,62,13)         -60.0145         estimate D2E/DX2                !
 ! D22   D(11,9,62,1)          179.9855         estimate D2E/DX2                !
 ! D23   D(11,9,62,5)          -60.0145         estimate D2E/DX2                !
 ! D24   D(11,9,62,13)          59.9855         estimate D2E/DX2                !
 ! D25   D(12,9,62,1)          -60.0145         estimate D2E/DX2                !
 ! D26   D(12,9,62,5)           59.9855         estimate D2E/DX2                !
 ! D27   D(12,9,62,13)         179.9855         estimate D2E/DX2                !
 ! D28   D(14,13,16,17)        179.9749         estimate D2E/DX2                !
 ! D29   D(14,13,16,18)         59.9749         estimate D2E/DX2                !
 ! D30   D(14,13,16,19)        -60.0251         estimate D2E/DX2                !
 ! D31   D(15,13,16,17)        -60.0251         estimate D2E/DX2                !
 ! D32   D(15,13,16,18)        179.9749         estimate D2E/DX2                !
 ! D33   D(15,13,16,19)         59.975          estimate D2E/DX2                !
 ! D34   D(62,13,16,17)         59.9749         estimate D2E/DX2                !
 ! D35   D(62,13,16,18)        -60.0251         estimate D2E/DX2                !
 ! D36   D(62,13,16,19)        179.975          estimate D2E/DX2                !
 ! D37   D(14,13,62,1)          59.9888         estimate D2E/DX2                !
 ! D38   D(14,13,62,5)         -60.0112         estimate D2E/DX2                !
 ! D39   D(14,13,62,9)         179.9888         estimate D2E/DX2                !
 ! D40   D(15,13,62,1)         -60.0112         estimate D2E/DX2                !
 ! D41   D(15,13,62,5)         179.9888         estimate D2E/DX2                !
 ! D42   D(15,13,62,9)          59.9888         estimate D2E/DX2                !
 ! D43   D(16,13,62,1)         179.9888         estimate D2E/DX2                !
 ! D44   D(16,13,62,5)          59.9888         estimate D2E/DX2                !
 ! D45   D(16,13,62,9)         -60.0112         estimate D2E/DX2                !
 ! D46   D(13,16,19,20)         59.9943         estimate D2E/DX2                !
 ! D47   D(13,16,19,21)        -60.0057         estimate D2E/DX2                !
 ! D48   D(13,16,19,22)        179.9943         estimate D2E/DX2                !
 ! D49   D(17,16,19,20)        179.9943         estimate D2E/DX2                !
 ! D50   D(17,16,19,21)         59.9943         estimate D2E/DX2                !
 ! D51   D(17,16,19,22)        -60.0057         estimate D2E/DX2                !
 ! D52   D(18,16,19,20)        -60.0057         estimate D2E/DX2                !
 ! D53   D(18,16,19,21)        179.9943         estimate D2E/DX2                !
 ! D54   D(18,16,19,22)         59.9943         estimate D2E/DX2                !
 ! D55   D(16,19,22,23)         60.0014         estimate D2E/DX2                !
 ! D56   D(16,19,22,24)        -59.9986         estimate D2E/DX2                !
 ! D57   D(16,19,22,25)       -179.9986         estimate D2E/DX2                !
 ! D58   D(20,19,22,23)       -179.9986         estimate D2E/DX2                !
 ! D59   D(20,19,22,24)         60.0014         estimate D2E/DX2                !
 ! D60   D(20,19,22,25)        -59.9986         estimate D2E/DX2                !
 ! D61   D(21,19,22,23)        -59.9986         estimate D2E/DX2                !
 ! D62   D(21,19,22,24)       -179.9986         estimate D2E/DX2                !
 ! D63   D(21,19,22,25)         60.0014         estimate D2E/DX2                !
 ! D64   D(19,22,25,26)         60.0            estimate D2E/DX2                !
 ! D65   D(19,22,25,27)        -60.0            estimate D2E/DX2                !
 ! D66   D(19,22,25,28)        180.0            estimate D2E/DX2                !
 ! D67   D(23,22,25,26)        180.0            estimate D2E/DX2                !
 ! D68   D(23,22,25,27)         60.0            estimate D2E/DX2                !
 ! D69   D(23,22,25,28)        -60.0            estimate D2E/DX2                !
 ! D70   D(24,22,25,26)        -60.0            estimate D2E/DX2                !
 ! D71   D(24,22,25,27)        180.0            estimate D2E/DX2                !
 ! D72   D(24,22,25,28)         60.0            estimate D2E/DX2                !
 ! D73   D(22,25,28,29)         60.0004         estimate D2E/DX2                !
 ! D74   D(22,25,28,30)        -59.9996         estimate D2E/DX2                !
 ! D75   D(22,25,28,31)       -179.9996         estimate D2E/DX2                !
 ! D76   D(26,25,28,29)       -179.9996         estimate D2E/DX2                !
 ! D77   D(26,25,28,30)         60.0004         estimate D2E/DX2                !
 ! D78   D(26,25,28,31)        -59.9996         estimate D2E/DX2                !
 ! D79   D(27,25,28,29)        -59.9996         estimate D2E/DX2                !
 ! D80   D(27,25,28,30)       -179.9996         estimate D2E/DX2                !
 ! D81   D(27,25,28,31)         60.0004         estimate D2E/DX2                !
 ! D82   D(25,28,31,32)         60.0001         estimate D2E/DX2                !
 ! D83   D(25,28,31,33)        -59.9999         estimate D2E/DX2                !
 ! D84   D(25,28,31,34)       -179.9999         estimate D2E/DX2                !
 ! D85   D(29,28,31,32)       -179.9999         estimate D2E/DX2                !
 ! D86   D(29,28,31,33)         60.0001         estimate D2E/DX2                !
 ! D87   D(29,28,31,34)        -59.9999         estimate D2E/DX2                !
 ! D88   D(30,28,31,32)        -59.9999         estimate D2E/DX2                !
 ! D89   D(30,28,31,33)       -179.9999         estimate D2E/DX2                !
 ! D90   D(30,28,31,34)         60.0001         estimate D2E/DX2                !
 ! D91   D(28,31,34,35)         60.0002         estimate D2E/DX2                !
 ! D92   D(28,31,34,36)        -59.9998         estimate D2E/DX2                !
 ! D93   D(28,31,34,37)       -179.9998         estimate D2E/DX2                !
 ! D94   D(32,31,34,35)       -179.9998         estimate D2E/DX2                !
 ! D95   D(32,31,34,36)         60.0002         estimate D2E/DX2                !
 ! D96   D(32,31,34,37)        -59.9998         estimate D2E/DX2                !
 ! D97   D(33,31,34,35)        -59.9998         estimate D2E/DX2                !
 ! D98   D(33,31,34,36)       -179.9998         estimate D2E/DX2                !
 ! D99   D(33,31,34,37)         60.0002         estimate D2E/DX2                !
 ! D100  D(31,34,37,38)         60.0001         estimate D2E/DX2                !
 ! D101  D(31,34,37,39)        -59.9999         estimate D2E/DX2                !
 ! D102  D(31,34,37,40)       -179.9999         estimate D2E/DX2                !
 ! D103  D(35,34,37,38)       -179.9999         estimate D2E/DX2                !
 ! D104  D(35,34,37,39)         60.0001         estimate D2E/DX2                !
 ! D105  D(35,34,37,40)        -59.9999         estimate D2E/DX2                !
 ! D106  D(36,34,37,38)        -59.9999         estimate D2E/DX2                !
 ! D107  D(36,34,37,39)       -179.9999         estimate D2E/DX2                !
 ! D108  D(36,34,37,40)         60.0001         estimate D2E/DX2                !
 ! D109  D(34,37,40,41)         60.0001         estimate D2E/DX2                !
 ! D110  D(34,37,40,42)        -59.9999         estimate D2E/DX2                !
 ! D111  D(34,37,40,43)       -179.9999         estimate D2E/DX2                !
 ! D112  D(38,37,40,41)       -179.9999         estimate D2E/DX2                !
 ! D113  D(38,37,40,42)         60.0001         estimate D2E/DX2                !
 ! D114  D(38,37,40,43)        -59.9999         estimate D2E/DX2                !
 ! D115  D(39,37,40,41)        -59.9999         estimate D2E/DX2                !
 ! D116  D(39,37,40,42)       -179.9999         estimate D2E/DX2                !
 ! D117  D(39,37,40,43)         60.0001         estimate D2E/DX2                !
 ! D118  D(37,40,43,44)         60.0001         estimate D2E/DX2                !
 ! D119  D(37,40,43,45)        -59.9999         estimate D2E/DX2                !
 ! D120  D(37,40,43,46)       -179.9999         estimate D2E/DX2                !
 ! D121  D(41,40,43,44)       -179.9999         estimate D2E/DX2                !
 ! D122  D(41,40,43,45)         60.0001         estimate D2E/DX2                !
 ! D123  D(41,40,43,46)        -59.9999         estimate D2E/DX2                !
 ! D124  D(42,40,43,44)        -59.9999         estimate D2E/DX2                !
 ! D125  D(42,40,43,45)       -179.9999         estimate D2E/DX2                !
 ! D126  D(42,40,43,46)         60.0001         estimate D2E/DX2                !
 ! D127  D(40,43,46,47)         60.0001         estimate D2E/DX2                !
 ! D128  D(40,43,46,48)        -59.9999         estimate D2E/DX2                !
 ! D129  D(40,43,46,49)       -179.9999         estimate D2E/DX2                !
 ! D130  D(44,43,46,47)       -179.9999         estimate D2E/DX2                !
 ! D131  D(44,43,46,48)         60.0001         estimate D2E/DX2                !
 ! D132  D(44,43,46,49)        -59.9999         estimate D2E/DX2                !
 ! D133  D(45,43,46,47)        -59.9999         estimate D2E/DX2                !
 ! D134  D(45,43,46,48)       -179.9999         estimate D2E/DX2                !
 ! D135  D(45,43,46,49)         60.0001         estimate D2E/DX2                !
 ! D136  D(43,46,49,50)         60.0001         estimate D2E/DX2                !
 ! D137  D(43,46,49,51)        -59.9999         estimate D2E/DX2                !
 ! D138  D(43,46,49,52)       -179.9999         estimate D2E/DX2                !
 ! D139  D(47,46,49,50)       -179.9999         estimate D2E/DX2                !
 ! D140  D(47,46,49,51)         60.0001         estimate D2E/DX2                !
 ! D141  D(47,46,49,52)        -59.9999         estimate D2E/DX2                !
 ! D142  D(48,46,49,50)        -59.9999         estimate D2E/DX2                !
 ! D143  D(48,46,49,51)       -179.9999         estimate D2E/DX2                !
 ! D144  D(48,46,49,52)         60.0001         estimate D2E/DX2                !
 ! D145  D(46,49,52,53)         60.0001         estimate D2E/DX2                !
 ! D146  D(46,49,52,54)        -59.9999         estimate D2E/DX2                !
 ! D147  D(46,49,52,55)       -179.9999         estimate D2E/DX2                !
 ! D148  D(50,49,52,53)       -179.9999         estimate D2E/DX2                !
 ! D149  D(50,49,52,54)         60.0001         estimate D2E/DX2                !
 ! D150  D(50,49,52,55)        -59.9999         estimate D2E/DX2                !
 ! D151  D(51,49,52,53)        -59.9999         estimate D2E/DX2                !
 ! D152  D(51,49,52,54)       -179.9999         estimate D2E/DX2                !
 ! D153  D(51,49,52,55)         60.0001         estimate D2E/DX2                !
 ! D154  D(49,52,55,56)         60.0001         estimate D2E/DX2                !
 ! D155  D(49,52,55,57)        -59.9999         estimate D2E/DX2                !
 ! D156  D(49,52,55,58)       -179.9999         estimate D2E/DX2                !
 ! D157  D(53,52,55,56)       -179.9999         estimate D2E/DX2                !
 ! D158  D(53,52,55,57)         60.0001         estimate D2E/DX2                !
 ! D159  D(53,52,55,58)        -59.9999         estimate D2E/DX2                !
 ! D160  D(54,52,55,56)        -59.9999         estimate D2E/DX2                !
 ! D161  D(54,52,55,57)       -179.9999         estimate D2E/DX2                !
 ! D162  D(54,52,55,58)         60.0001         estimate D2E/DX2                !
 ! D163  D(52,55,58,59)         60.0            estimate D2E/DX2                !
 ! D164  D(52,55,58,60)        180.0            estimate D2E/DX2                !
 ! D165  D(52,55,58,61)        -60.0            estimate D2E/DX2                !
 ! D166  D(56,55,58,59)        180.0            estimate D2E/DX2                !
 ! D167  D(56,55,58,60)        -60.0            estimate D2E/DX2                !
 ! D168  D(56,55,58,61)         60.0            estimate D2E/DX2                !
 ! D169  D(57,55,58,59)        -60.0            estimate D2E/DX2                !
 ! D170  D(57,55,58,60)         60.0            estimate D2E/DX2                !
 ! D171  D(57,55,58,61)        180.0            estimate D2E/DX2                !
 --------------------------------------------------------------------------------
 Trust Radius=3.00D-01 FncErr=1.00D-07 GrdErr=1.00D-06 EigMax=2.50D+02 EigMin=1.00D-04
 Number of steps in this run=    362 maximum allowed number of steps=    372.
 GradGradGradGradGradGradGradGradGradGradGradGradGradGradGradGradGradGrad

 Leave Link  103 at Wed Sep 30 05:10:47 2020, MaxMem=  3221225472 cpu:               0.1 elap:               0.0
 (Enter /usr/local/Gaussian/gaussian-16-A03-avx2/g16/l202.exe)
 Stoichiometry    C19H42N(1+)
 Framework group  C1[X(C19H42N)]
 Deg. of freedom   180
 Full point group                 C1      NOp   1
 Largest Abelian subgroup         C1      NOp   1
 Largest concise Abelian subgroup C1      NOp   1
                         Standard orientation:                         
 ---------------------------------------------------------------------
 Center     Atomic      Atomic             Coordinates (Angstroms)
 Number     Number       Type             X           Y           Z
 ---------------------------------------------------------------------
      1          6           0       -9.691117   -0.777439   -0.000258
      2          1           0       -9.680176   -1.393288   -0.875192
      3          1           0       -9.678068   -1.396884    0.872106
      4          1           0      -10.576599   -0.176758    0.002047
      5          6           0       -8.468551    1.025505   -1.256837
      6          1           0       -9.354217    1.625918   -1.256677
      7          1           0       -7.607253    1.660380   -1.256381
      8          1           0       -8.456227    0.408298   -2.130796
      9          6           0       -8.468409    1.024256    1.257972
     10          1           0       -8.456619    0.406169    2.131316
     11          1           0       -7.606786    1.658691    1.258366
     12          1           0       -9.353767    1.625123    1.258193
     13          6           0       -7.176782   -0.728607   -0.000377
     14          1           0       -7.164932   -1.345962   -0.874237
     15          1           0       -7.164641   -1.346548    0.873066
     16          6           0       -5.936880    0.184762   -0.000277
     17          1           0       -5.948957    0.802425    0.873363
     18          1           0       -5.948794    0.802395   -0.873940
     19          6           0       -4.662447   -0.679774   -0.000144
     20          1           0       -4.650420   -1.297509   -0.873734
     21          1           0       -4.650483   -1.297336    0.873569
     22          6           0       -3.422545    0.233594   -0.000189
     23          1           0       -3.434560    0.851312    0.873413
     24          1           0       -3.434521    0.851174   -0.873889
     25          6           0       -2.148112   -0.630941   -0.000092
     26          1           0       -2.136097   -1.248659   -0.873694
     27          1           0       -2.136136   -1.248520    0.873609
     28          6           0       -0.908210    0.282427   -0.000137
     29          1           0       -0.920222    0.900140    0.873469
     30          1           0       -0.920189    0.900011   -0.873834
     31          6           0        0.366223   -0.582108   -0.000050
     32          1           0        0.378235   -1.199820   -0.873656
     33          1           0        0.378202   -1.199694    0.873646
     34          6           0        1.606125    0.331260   -0.000092
     35          1           0        1.594114    0.948969    0.873516
     36          1           0        1.594145    0.948848   -0.873786
     37          6           0        2.880558   -0.533276   -0.000010
     38          1           0        2.892569   -1.150983   -0.873619
     39          1           0        2.892538   -1.150864    0.873683
     40          6           0        4.120460    0.380093   -0.000050
     41          1           0        4.108449    0.997799    0.873560
     42          1           0        4.108480    0.997683   -0.873742
     43          6           0        5.394893   -0.484443    0.000029
     44          1           0        5.406904   -1.102148   -0.873581
     45          1           0        5.406873   -1.102034    0.873721
     46          6           0        6.634795    0.428926   -0.000008
     47          1           0        6.622784    1.046630    0.873604
     48          1           0        6.622815    1.046518   -0.873698
     49          6           0        7.909228   -0.435610    0.000069
     50          1           0        7.921239   -1.053313   -0.873544
     51          1           0        7.921208   -1.053204    0.873759
     52          6           0        9.149130    0.477758    0.000035
     53          1           0        9.137119    1.095460    0.873648
     54          1           0        9.137150    1.095354   -0.873655
     55          6           0       10.423563   -0.386777    0.000109
     56          1           0       10.435574   -1.004477   -0.873506
     57          1           0       10.435543   -1.004374    0.873797
     58          6           0       11.663465    0.526591    0.000077
     59          1           0       11.651453    1.144291    0.873691
     60          1           0       12.548948   -0.074093    0.000128
     61          1           0       11.651485    1.144188   -0.873612
     62          7           0       -8.451215    0.135929    0.000125
 ---------------------------------------------------------------------
 Rotational constants (GHZ):           2.4079715           0.0374842           0.0373440
 Leave Link  202 at Wed Sep 30 05:10:47 2020, MaxMem=  3221225472 cpu:               0.0 elap:               0.0
 (Enter /usr/local/Gaussian/gaussian-16-A03-avx2/g16/l301.exe)
 Standard basis: 6-311+G(d,p) (5D, 7F)
 Ernie: Thresh=  0.10000D-02 Tol=  0.10000D-05 Strict=F.
 There are   712 symmetry adapted cartesian basis functions of A   symmetry.
 There are   692 symmetry adapted basis functions of A   symmetry.
   692 basis functions,  1056 primitive gaussians,   712 cartesian basis functions
    81 alpha electrons       81 beta electrons
       nuclear repulsion energy      1444.4974302395 Hartrees.
 IExCor=20419 DFT=T Ex+Corr=CAM-B3LYP ExCW=0 ScaHFX=  1.000000
 ScaDFX=  1.000000  1.000000  1.000000  0.810000 ScalE2=  1.000000  1.000000
 IRadAn=      5 IRanWt=     -1 IRanGd=            0 ICorTp=0 IEmpDi=  4
 HFx  wShort=  0.000000 wLong=  0.330000 cFull=  0.190000 cShort=  0.000000 cLong=  0.460000
 DFx  wShort=  0.000000 wLong=  0.330000 cFull=  0.190000 cShort=  0.000000 cLong=  0.460000
 NAtoms=   62 NActive=   62 NUniq=   62 SFac= 1.00D+00 NAtFMM=   60 NAOKFM=T Big=T
 Integral buffers will be    131072 words long.
 Raffenetti 2 integral format.
 Two-electron integral symmetry is turned on.
 Leave Link  301 at Wed Sep 30 05:10:47 2020, MaxMem=  3221225472 cpu:               0.3 elap:               0.1
 (Enter /usr/local/Gaussian/gaussian-16-A03-avx2/g16/linda-exe/l302.exel)
 NPDir=0 NMtPBC=     1 NCelOv=     1 NCel=       1 NClECP=     1 NCelD=      1
         NCelK=      1 NCelE2=     1 NClLst=     1 CellRange=     0.0.
 One-electron integrals computed using PRISM.
 One-electron integral symmetry used in STVInt
 NBasis=   692 RedAO= T EigKep=  1.17D-06  NBF=   692
 NBsUse=   691 1.00D-06 EigRej=  1.91D-07 NBFU=   691
 Precomputing XC quadrature grid using
 IXCGrd= 4 IRadAn=           5 IRanWt=          -1 IRanGd=           0 AccXCQ= 0.00D+00.
 Generated NRdTot=       0 NPtTot=           0 NUsed=           0 NTot=          32
 NSgBfM=   599   596   596   596   599 MxSgAt=    62 MxSgA2=    62.
 Leave Link  302 at Wed Sep 30 05:10:49 2020, MaxMem=  3221225472 cpu:              10.5 elap:               1.8
 (Enter /usr/local/Gaussian/gaussian-16-A03-avx2/g16/l303.exe)
 DipDrv:  MaxL=1.
 Leave Link  303 at Wed Sep 30 05:10:49 2020, MaxMem=  3221225472 cpu:               0.7 elap:               0.1
 (Enter /usr/local/Gaussian/gaussian-16-A03-avx2/g16/linda-exe/l401.exel)
 ExpMin= 4.38D-02 ExpMax= 6.29D+03 ExpMxC= 9.49D+02 IAcc=3 IRadAn=         5 AccDes= 0.00D+00
 Harris functional with IExCor=20419 and IRadAn=       5 diagonalized for initial guess.
 HarFok:  IExCor=20419 AccDes= 0.00D+00 IRadAn=         5 IDoV= 1 UseB2=F ITyADJ=14
 ICtDFT=  3500011 ScaDFX=  1.000000  1.000000  1.000000  1.000000
 FoFCou: FMM=F IPFlag=           0 FMFlag=      100000 FMFlg1=        2001
         NFxFlg=           0 DoJE=T BraDBF=F KetDBF=T FulRan=T
         wScrn=  0.000000 ICntrl=       500 IOpCl=  0 I1Cent=   200000004 NGrid=           0
         NMat0=    1 NMatS0=      1 NMatT0=    0 NMatD0=    1 NMtDS0=    0 NMtDT0=    0
 Petite list used in FoFCou.
 Harris En= -768.050457603910    
 JPrj=0 DoOrth=F DoCkMO=F.
 Leave Link  401 at Wed Sep 30 05:10:55 2020, MaxMem=  3221225472 cpu:              29.0 elap:               4.9
 (Enter /usr/local/Gaussian/gaussian-16-A03-avx2/g16/linda-exe/l502.exel)
 Integral symmetry usage will be decided dynamically.
 Closed shell SCF:
 Using DIIS extrapolation, IDIIS=  1040.
 NGot=  3221225472 LenX=  3220199966 LenY=  3219692310
 Requested convergence on RMS density matrix=1.00D-08 within  32 cycles.
 Requested convergence on MAX density matrix=1.00D-06.
 Requested convergence on             energy=1.00D-06.
 No special actions if energy rises.
 Fock matrices will be formed incrementally for  20 cycles.

 Cycle   1  Pass 1  IDiag  1:
 FoFJK:  IHMeth= 1 ICntrl=       0 DoSepK=T KAlg= 0 I1Cent=           0 FoldK=F
 IRaf=         1 NMat=       1 IRICut=       1 DoRegI=T DoRafI=F ISym2E= 0 IDoP0=0 IntGTp=1.
 FoFCou: FMM=T IPFlag=           0 FMFlag=      100000 FMFlg1=        2001
         NFxFlg=           0 DoJE=T BraDBF=F KetDBF=F FulRan=T
         wScrn=  0.000000 ICntrl=       500 IOpCl=  0 I1Cent=           0 NGrid=           0
         NMat0=    1 NMatS0=      1 NMatT0=    0 NMatD0=    1 NMtDS0=    0 NMtDT0=    0
 Symmetry not used in FoFCou.
 FMM levels:  10  Number of levels for PrismC:   9
 E= -803.163014562241    
 DIIS: error= 6.12D-02 at cycle   1 NSaved=   1.
 NSaved= 1 IEnMin= 1 EnMin= -803.163014562241     IErMin= 1 ErrMin= 6.12D-02
 ErrMax= 6.12D-02  0.00D+00 EMaxC= 1.00D-01 BMatC= 1.49D+00 BMatP= 1.49D+00
 IDIUse=3 WtCom= 3.88D-01 WtEn= 6.12D-01
 Coeff-Com:  0.100D+01
 Coeff-En:   0.100D+01
 Coeff:      0.100D+01
 Gap=     0.260 Goal=   None    Shift=    0.000
 GapD=    0.260 DampG=1.000 DampE=0.500 DampFc=0.5000 IDamp=-1.
 Damping current iteration by 5.00D-01
 RMSDP=4.93D-03 MaxDP=3.77D-01              OVMax= 1.62D-01

 Cycle   2  Pass 1  IDiag  1:
 RMSU=  2.46D-03    CP:  9.92D-01
 E= -803.341005547467     Delta-E=       -0.177990985227 Rises=F Damp=T
 DIIS: error= 2.96D-02 at cycle   2 NSaved=   2.
 NSaved= 2 IEnMin= 2 EnMin= -803.341005547467     IErMin= 2 ErrMin= 2.96D-02
 ErrMax= 2.96D-02  0.00D+00 EMaxC= 1.00D-01 BMatC= 3.00D-01 BMatP= 1.49D+00
 IDIUse=3 WtCom= 7.04D-01 WtEn= 2.96D-01
 Coeff-Com: -0.395D+00 0.140D+01
 Coeff-En:   0.000D+00 0.100D+01
 Coeff:     -0.278D+00 0.128D+01
 Gap=     0.355 Goal=   None    Shift=    0.000
 RMSDP=3.38D-03 MaxDP=2.53D-01 DE=-1.78D-01 OVMax= 1.31D-01

 Cycle   3  Pass 1  IDiag  1:
 RMSU=  2.58D-03    CP:  1.12D+00  1.26D+00
 E= -803.473894255581     Delta-E=       -0.132888708114 Rises=F Damp=F
 DIIS: error= 2.48D-02 at cycle   3 NSaved=   3.
 NSaved= 3 IEnMin= 3 EnMin= -803.473894255581     IErMin= 3 ErrMin= 2.48D-02
 ErrMax= 2.48D-02  0.00D+00 EMaxC= 1.00D-01 BMatC= 9.83D-02 BMatP= 3.00D-01
 IDIUse=3 WtCom= 7.52D-01 WtEn= 2.48D-01
 Coeff-Com: -0.293D+00 0.646D+00 0.646D+00
 Coeff-En:   0.000D+00 0.000D+00 0.100D+01
 Coeff:     -0.220D+00 0.486D+00 0.734D+00
 Gap=     0.271 Goal=   None    Shift=    0.000
 RMSDP=1.23D-03 MaxDP=1.53D-01 DE=-1.33D-01 OVMax= 6.72D-02

 Cycle   4  Pass 1  IDiag  1:
 RMSU=  5.94D-04    CP:  1.14D+00  1.64D+00  8.35D-01
 E= -803.539463653644     Delta-E=       -0.065569398063 Rises=F Damp=F
 DIIS: error= 1.11D-02 at cycle   4 NSaved=   4.
 NSaved= 4 IEnMin= 4 EnMin= -803.539463653644     IErMin= 4 ErrMin= 1.11D-02
 ErrMax= 1.11D-02  0.00D+00 EMaxC= 1.00D-01 BMatC= 1.75D-02 BMatP= 9.83D-02
 IDIUse=3 WtCom= 8.89D-01 WtEn= 1.11D-01
 Coeff-Com: -0.101D+00 0.225D+00 0.401D+00 0.475D+00
 Coeff-En:   0.000D+00 0.000D+00 0.124D+00 0.876D+00
 Coeff:     -0.896D-01 0.200D+00 0.371D+00 0.519D+00
 Gap=     0.265 Goal=   None    Shift=    0.000
 RMSDP=3.80D-04 MaxDP=5.39D-02 DE=-6.56D-02 OVMax= 1.94D-02

 Cycle   5  Pass 1  IDiag  1:
 RMSU=  1.12D-04    CP:  1.14D+00  1.57D+00  9.22D-01  6.34D-01
 E= -803.552597411058     Delta-E=       -0.013133757414 Rises=F Damp=F
 DIIS: error= 7.67D-04 at cycle   5 NSaved=   5.
 NSaved= 5 IEnMin= 5 EnMin= -803.552597411058     IErMin= 5 ErrMin= 7.67D-04
 ErrMax= 7.67D-04  0.00D+00 EMaxC= 1.00D-01 BMatC= 1.24D-04 BMatP= 1.75D-02
 IDIUse=3 WtCom= 9.92D-01 WtEn= 7.67D-03
 Coeff-Com:  0.149D-01-0.333D-01-0.292D-01 0.756D-01 0.972D+00
 Coeff-En:   0.000D+00 0.000D+00 0.000D+00 0.000D+00 0.100D+01
 Coeff:      0.147D-01-0.331D-01-0.290D-01 0.750D-01 0.972D+00
 Gap=     0.267 Goal=   None    Shift=    0.000
 RMSDP=1.82D-04 MaxDP=1.50D-02 DE=-1.31D-02 OVMax= 1.97D-03

 Cycle   6  Pass 1  IDiag  1:
 RMSU=  3.73D-05    CP:  1.15D+00  1.59D+00  9.53D-01  7.18D-01  1.12D+00
 E= -803.552700499410     Delta-E=       -0.000103088351 Rises=F Damp=F
 DIIS: error= 7.24D-05 at cycle   6 NSaved=   6.
 NSaved= 6 IEnMin= 6 EnMin= -803.552700499410     IErMin= 6 ErrMin= 7.24D-05
 ErrMax= 7.24D-05  0.00D+00 EMaxC= 1.00D-01 BMatC= 1.97D-06 BMatP= 1.24D-04
 IDIUse=1 WtCom= 1.00D+00 WtEn= 0.00D+00
 Coeff-Com:  0.675D-02-0.151D-01-0.166D-01 0.167D-01 0.317D+00 0.691D+00
 Coeff:      0.675D-02-0.151D-01-0.166D-01 0.167D-01 0.317D+00 0.691D+00
 Gap=     0.267 Goal=   None    Shift=    0.000
 RMSDP=1.72D-05 MaxDP=1.26D-03 DE=-1.03D-04 OVMax= 2.68D-04

 Cycle   7  Pass 1  IDiag  1:
 RMSU=  6.97D-06    CP:  1.15D+00  1.59D+00  9.54D-01  7.26D-01  1.14D+00
                    CP:  9.81D-01
 E= -803.552702250110     Delta-E=       -0.000001750700 Rises=F Damp=F
 DIIS: error= 1.56D-05 at cycle   7 NSaved=   7.
 NSaved= 7 IEnMin= 7 EnMin= -803.552702250110     IErMin= 7 ErrMin= 1.56D-05
 ErrMax= 1.56D-05  0.00D+00 EMaxC= 1.00D-01 BMatC= 1.88D-07 BMatP= 1.97D-06
 IDIUse=1 WtCom= 1.00D+00 WtEn= 0.00D+00
 Coeff-Com:  0.587D-03-0.126D-02-0.188D-02-0.198D-02-0.324D-02 0.227D+00
 Coeff-Com:  0.781D+00
 Coeff:      0.587D-03-0.126D-02-0.188D-02-0.198D-02-0.324D-02 0.227D+00
 Coeff:      0.781D+00
 Gap=     0.267 Goal=   None    Shift=    0.000
 RMSDP=7.64D-06 MaxDP=6.26D-04 DE=-1.75D-06 OVMax= 9.62D-05

 Cycle   8  Pass 1  IDiag  1:
 RMSU=  2.10D-06    CP:  1.15D+00  1.59D+00  9.55D-01  7.28D-01  1.15D+00
                    CP:  1.03D+00  8.61D-01
 E= -803.552702443742     Delta-E=       -0.000000193632 Rises=F Damp=F
 DIIS: error= 3.05D-06 at cycle   8 NSaved=   8.
 NSaved= 8 IEnMin= 8 EnMin= -803.552702443742     IErMin= 8 ErrMin= 3.05D-06
 ErrMax= 3.05D-06  0.00D+00 EMaxC= 1.00D-01 BMatC= 5.24D-09 BMatP= 1.88D-07
 IDIUse=1 WtCom= 1.00D+00 WtEn= 0.00D+00
 Coeff-Com: -0.317D-04 0.866D-04 0.188D-04-0.918D-03-0.934D-02 0.273D-01
 Coeff-Com:  0.179D+00 0.804D+00
 Coeff:     -0.317D-04 0.866D-04 0.188D-04-0.918D-03-0.934D-02 0.273D-01
 Coeff:      0.179D+00 0.804D+00
 Gap=     0.267 Goal=   None    Shift=    0.000
 RMSDP=1.59D-06 MaxDP=1.13D-04 DE=-1.94D-07 OVMax= 1.34D-05

 Cycle   9  Pass 1  IDiag  1:
 RMSU=  6.56D-07    CP:  1.15D+00  1.59D+00  9.56D-01  7.28D-01  1.15D+00
                    CP:  1.04D+00  9.22D-01  9.99D-01
 E= -803.552702449375     Delta-E=       -0.000000005633 Rises=F Damp=F
 DIIS: error= 1.74D-06 at cycle   9 NSaved=   9.
 NSaved= 9 IEnMin= 9 EnMin= -803.552702449375     IErMin= 9 ErrMin= 1.74D-06
 ErrMax= 1.74D-06  0.00D+00 EMaxC= 1.00D-01 BMatC= 7.32D-10 BMatP= 5.24D-09
 IDIUse=1 WtCom= 1.00D+00 WtEn= 0.00D+00
 Coeff-Com: -0.527D-04 0.118D-03 0.139D-03-0.199D-03-0.315D-02-0.830D-02
 Coeff-Com:  0.622D-03 0.271D+00 0.739D+00
 Coeff:     -0.527D-04 0.118D-03 0.139D-03-0.199D-03-0.315D-02-0.830D-02
 Coeff:      0.622D-03 0.271D+00 0.739D+00
 Gap=     0.267 Goal=   None    Shift=    0.000
 RMSDP=4.35D-07 MaxDP=3.07D-05 DE=-5.63D-09 OVMax= 4.51D-06

 Cycle  10  Pass 1  IDiag  1:
 RMSU=  1.07D-07    CP:  1.15D+00  1.59D+00  9.56D-01  7.29D-01  1.15D+00
                    CP:  1.04D+00  9.23D-01  1.08D+00  1.07D+00
 E= -803.552702450169     Delta-E=       -0.000000000794 Rises=F Damp=F
 DIIS: error= 2.94D-07 at cycle  10 NSaved=  10.
 NSaved=10 IEnMin=10 EnMin= -803.552702450169     IErMin=10 ErrMin= 2.94D-07
 ErrMax= 2.94D-07  0.00D+00 EMaxC= 1.00D-01 BMatC= 3.87D-11 BMatP= 7.32D-10
 IDIUse=1 WtCom= 1.00D+00 WtEn= 0.00D+00
 Coeff-Com: -0.911D-05 0.190D-04 0.277D-04 0.276D-04 0.409D-04-0.435D-02
 Coeff-Com: -0.159D-01-0.541D-02 0.181D+00 0.845D+00
 Coeff:     -0.911D-05 0.190D-04 0.277D-04 0.276D-04 0.409D-04-0.435D-02
 Coeff:     -0.159D-01-0.541D-02 0.181D+00 0.845D+00
 Gap=     0.267 Goal=   None    Shift=    0.000
 RMSDP=1.03D-07 MaxDP=8.99D-06 DE=-7.94D-10 OVMax= 1.36D-06

 Cycle  11  Pass 1  IDiag  1:
 RMSU=  3.43D-08    CP:  1.15D+00  1.59D+00  9.56D-01  7.29D-01  1.15D+00
                    CP:  1.04D+00  9.27D-01  1.09D+00  1.13D+00  1.06D+00
 E= -803.552702450204     Delta-E=       -0.000000000035 Rises=F Damp=F
 DIIS: error= 5.49D-08 at cycle  11 NSaved=  11.
 NSaved=11 IEnMin=11 EnMin= -803.552702450204     IErMin=11 ErrMin= 5.49D-08
 ErrMax= 5.49D-08  0.00D+00 EMaxC= 1.00D-01 BMatC= 2.64D-12 BMatP= 3.87D-11
 IDIUse=1 WtCom= 1.00D+00 WtEn= 0.00D+00
 Coeff-Com: -0.618D-06 0.100D-05 0.267D-05 0.189D-04 0.140D-03-0.809D-03
 Coeff-Com: -0.451D-02-0.145D-01 0.153D-01 0.243D+00 0.761D+00
 Coeff:     -0.618D-06 0.100D-05 0.267D-05 0.189D-04 0.140D-03-0.809D-03
 Coeff:     -0.451D-02-0.145D-01 0.153D-01 0.243D+00 0.761D+00
 Gap=     0.267 Goal=   None    Shift=    0.000
 RMSDP=1.99D-08 MaxDP=1.43D-06 DE=-3.50D-11 OVMax= 3.72D-07

 Cycle  12  Pass 1  IDiag  1:
 RMSU=  1.14D-08    CP:  1.15D+00  1.59D+00  9.56D-01  7.29D-01  1.15D+00
                    CP:  1.04D+00  9.27D-01  1.09D+00  1.14D+00  1.10D+00
                    CP:  9.09D-01
 E= -803.552702450211     Delta-E=       -0.000000000007 Rises=F Damp=F
 DIIS: error= 2.13D-08 at cycle  12 NSaved=  12.
 NSaved=12 IEnMin=12 EnMin= -803.552702450211     IErMin=12 ErrMin= 2.13D-08
 ErrMax= 2.13D-08  0.00D+00 EMaxC= 1.00D-01 BMatC= 3.26D-13 BMatP= 2.64D-12
 IDIUse=1 WtCom= 1.00D+00 WtEn= 0.00D+00
 Coeff-Com:  0.389D-06-0.873D-06-0.902D-06 0.488D-05 0.393D-04 0.802D-04
 Coeff-Com: -0.260D-03-0.465D-02-0.102D-01 0.136D-01 0.277D+00 0.724D+00
 Coeff:      0.389D-06-0.873D-06-0.902D-06 0.488D-05 0.393D-04 0.802D-04
 Coeff:     -0.260D-03-0.465D-02-0.102D-01 0.136D-01 0.277D+00 0.724D+00
 Gap=     0.267 Goal=   None    Shift=    0.000
 RMSDP=5.45D-09 MaxDP=3.69D-07 DE=-6.82D-12 OVMax= 9.28D-08

 SCF Done:  E(RCAM-B3LYP) =  -803.552702450     A.U. after   12 cycles
            NFock= 12  Conv=0.55D-08     -V/T= 2.0032
 KE= 8.010141120779D+02 PE=-4.734297129386D+03 EE= 1.685232884618D+03
 Leave Link  502 at Wed Sep 30 05:14:35 2020, MaxMem=  3221225472 cpu:            1271.2 elap:             218.7
 (Enter /usr/local/Gaussian/gaussian-16-A03-avx2/g16/linda-exe/l508.exel)
 QCSCF skips out because SCF is already converged.
 Leave Link  508 at Wed Sep 30 05:14:36 2020, MaxMem=  3221225472 cpu:               0.0 elap:               0.0
 (Enter /usr/local/Gaussian/gaussian-16-A03-avx2/g16/l601.exe)
 Copying SCF densities to generalized density rwf, IOpCl= 0 IROHF=0.

 **********************************************************************

            Population analysis using the SCF density.

 **********************************************************************

 Orbital symmetries:
       Occupied  (A) (A) (A) (A) (A) (A) (A) (A) (A) (A) (A) (A)
                 (A) (A) (A) (A) (A) (A) (A) (A) (A) (A) (A) (A)
                 (A) (A) (A) (A) (A) (A) (A) (A) (A) (A) (A) (A)
                 (A) (A) (A) (A) (A) (A) (A) (A) (A) (A) (A) (A)
                 (A) (A) (A) (A) (A) (A) (A) (A) (A) (A) (A) (A)
                 (A) (A) (A) (A) (A) (A) (A) (A) (A) (A) (A) (A)
                 (A) (A) (A) (A) (A) (A) (A) (A) (A)
       Virtual   (A) (A) (A) (A) (A) (A) (A) (A) (A) (A) (A) (A)
                 (A) (A) (A) (A) (A) (A) (A) (A) (A) (A) (A) (A)
                 (A) (A) (A) (A) (A) (A) (A) (A) (A) (A) (A) (A)
                 (A) (A) (A) (A) (A) (A) (A) (A) (A) (A) (A) (A)
                 (A) (A) (A) (A) (A) (A) (A) (A) (A) (A) (A) (A)
                 (A) (A) (A) (A) (A) (A) (A) (A) (A) (A) (A) (A)
                 (A) (A) (A) (A) (A) (A) (A) (A) (A) (A) (A) (A)
                 (A) (A) (A) (A) (A) (A) (A) (A) (A) (A) (A) (A)
                 (A) (A) (A) (A) (A) (A) (A) (A) (A) (A) (A) (A)
                 (A) (A) (A) (A) (A) (A) (A) (A) (A) (A) (A) (A)
                 (A) (A) (A) (A) (A) (A) (A) (A) (A) (A) (A) (A)
                 (A) (A) (A) (A) (A) (A) (A) (A) (A) (A) (A) (A)
                 (A) (A) (A) (A) (A) (A) (A) (A) (A) (A) (A) (A)
                 (A) (A) (A) (A) (A) (A) (A) (A) (A) (A) (A) (A)
                 (A) (A) (A) (A) (A) (A) (A) (A) (A) (A) (A) (A)
                 (A) (A) (A) (A) (A) (A) (A) (A) (A) (A) (A) (A)
                 (A) (A) (A) (A) (A) (A) (A) (A) (A) (A) (A) (A)
                 (A) (A) (A) (A) (A) (A) (A) (A) (A) (A) (A) (A)
                 (A) (A) (A) (A) (A) (A) (A) (A) (A) (A) (A) (A)
                 (A) (A) (A) (A) (A) (A) (A) (A) (A) (A) (A) (A)
                 (A) (A) (A) (A) (A) (A) (A) (A) (A) (A) (A) (A)
                 (A) (A) (A) (A) (A) (A) (A) (A) (A) (A) (A) (A)
                 (A) (A) (A) (A) (A) (A) (A) (A) (A) (A) (A) (A)
                 (A) (A) (A) (A) (A) (A) (A) (A) (A) (A) (A) (A)
                 (A) (A) (A) (A) (A) (A) (A) (A) (A) (A) (A) (A)
                 (A) (A) (A) (A) (A) (A) (A) (A) (A) (A) (A) (A)
                 (A) (A) (A) (A) (A) (A) (A) (A) (A) (A) (A) (A)
                 (A) (A) (A) (A) (A) (A) (A) (A) (A) (A) (A) (A)
                 (A) (A) (A) (A) (A) (A) (A) (A) (A) (A) (A) (A)
                 (A) (A) (A) (A) (A) (A) (A) (A) (A) (A) (A) (A)
                 (A) (A) (A) (A) (A) (A) (A) (A) (A) (A) (A) (A)
                 (A) (A) (A) (A) (A) (A) (A) (A) (A) (A) (A) (A)
                 (A) (A) (A) (A) (A) (A) (A) (A) (A) (A) (A) (A)
                 (A) (A) (A) (A) (A) (A) (A) (A) (A) (A) (A) (A)
                 (A) (A) (A) (A) (A) (A) (A) (A) (A) (A) (A) (A)
                 (A) (A) (A) (A) (A) (A) (A) (A) (A) (A) (A) (A)
                 (A) (A) (A) (A) (A) (A) (A) (A) (A) (A) (A) (A)
                 (A) (A) (A) (A) (A) (A) (A) (A) (A) (A) (A) (A)
                 (A) (A) (A) (A) (A) (A) (A) (A) (A) (A) (A) (A)
                 (A) (A) (A) (A) (A) (A) (A) (A) (A) (A) (A) (A)
                 (A) (A) (A) (A) (A) (A) (A) (A) (A) (A) (A) (A)
                 (A) (A) (A) (A) (A) (A) (A) (A) (A) (A) (A) (A)
                 (A) (A) (A) (A) (A) (A) (A) (A) (A) (A) (A) (A)
                 (A) (A) (A) (A) (A) (A) (A) (A) (A) (A) (A) (A)
                 (A) (A) (A) (A) (A) (A) (A) (A) (A) (A) (A) (A)
                 (A) (A) (A) (A) (A) (A) (A) (A) (A) (A) (A) (A)
                 (A) (A) (A) (A) (A) (A) (A) (A) (A) (A) (A) (A)
                 (A) (A) (A) (A) (A) (A) (A) (A) (A) (A) (A) (A)
                 (A) (A) (A) (A) (A) (A) (A) (A) (A) (A) (A) (A)
                 (A) (A) (A) (A) (A) (A) (A) (A) (A) (A) (A) (A)
                 (A) (A) (A) (A) (A) (A) (A) (A) (A) (A)
 The electronic state is 1-A.
 Alpha  occ. eigenvalues --  -14.68036 -10.45200 -10.45134 -10.45133 -10.45017
 Alpha  occ. eigenvalues --  -10.38493 -10.35478 -10.33090 -10.31226 -10.29890
 Alpha  occ. eigenvalues --  -10.28825 -10.28009 -10.27346 -10.26823 -10.26393
 Alpha  occ. eigenvalues --  -10.26056 -10.25778 -10.25598 -10.25576 -10.24593
 Alpha  occ. eigenvalues --   -1.24591  -1.03679  -0.99088  -0.99066  -0.98158
 Alpha  occ. eigenvalues --   -0.95251  -0.93551  -0.92074  -0.90251  -0.88151
 Alpha  occ. eigenvalues --   -0.85932  -0.83766  -0.81534  -0.79076  -0.76455
 Alpha  occ. eigenvalues --   -0.75497  -0.74949  -0.74028  -0.73407  -0.71964
 Alpha  occ. eigenvalues --   -0.71106  -0.70568  -0.69398  -0.68711  -0.67202
 Alpha  occ. eigenvalues --   -0.66306  -0.64260  -0.63998  -0.63819  -0.63305
 Alpha  occ. eigenvalues --   -0.63230  -0.61990  -0.60655  -0.60451  -0.59097
 Alpha  occ. eigenvalues --   -0.58196  -0.57489  -0.55700  -0.55369  -0.53869
 Alpha  occ. eigenvalues --   -0.53836  -0.53277  -0.51959  -0.51932  -0.50449
 Alpha  occ. eigenvalues --   -0.50091  -0.50011  -0.48338  -0.48095  -0.46763
 Alpha  occ. eigenvalues --   -0.46328  -0.46179  -0.45400  -0.44760  -0.44268
 Alpha  occ. eigenvalues --   -0.43457  -0.43352  -0.42726  -0.42434  -0.41576
 Alpha  occ. eigenvalues --   -0.37174
 Alpha virt. eigenvalues --   -0.10488  -0.08453  -0.07901  -0.07609  -0.07234
 Alpha virt. eigenvalues --   -0.06070  -0.05692  -0.04833  -0.04668  -0.04528
 Alpha virt. eigenvalues --   -0.02500  -0.02172  -0.01967  -0.01470  -0.00480
 Alpha virt. eigenvalues --   -0.00321  -0.00179   0.00391   0.00495   0.00710
 Alpha virt. eigenvalues --    0.00891   0.01114   0.01649   0.01695   0.01938
 Alpha virt. eigenvalues --    0.02223   0.02428   0.02944   0.03179   0.03498
 Alpha virt. eigenvalues --    0.03718   0.04046   0.04197   0.04318   0.04485
 Alpha virt. eigenvalues --    0.05020   0.05375   0.05428   0.05466   0.05493
 Alpha virt. eigenvalues --    0.05832   0.06150   0.06214   0.06485   0.06693
 Alpha virt. eigenvalues --    0.07232   0.07297   0.07757   0.08003   0.08098
 Alpha virt. eigenvalues --    0.08904   0.09372   0.09420   0.09676   0.10078
 Alpha virt. eigenvalues --    0.10149   0.10685   0.10834   0.11410   0.12014
 Alpha virt. eigenvalues --    0.12312   0.12356   0.12698   0.12911   0.13244
 Alpha virt. eigenvalues --    0.13683   0.13693   0.14424   0.15041   0.15069
 Alpha virt. eigenvalues --    0.15511   0.15677   0.15861   0.16116   0.16366
 Alpha virt. eigenvalues --    0.17192   0.17242   0.17524   0.17566   0.17735
 Alpha virt. eigenvalues --    0.17880   0.18070   0.18431   0.18913   0.19018
 Alpha virt. eigenvalues --    0.19293   0.19489   0.19508   0.19792   0.20586
 Alpha virt. eigenvalues --    0.20734   0.20785   0.21091   0.21265   0.21321
 Alpha virt. eigenvalues --    0.21676   0.21933   0.21983   0.22341   0.22530
 Alpha virt. eigenvalues --    0.22833   0.23110   0.23417   0.23730   0.23948
 Alpha virt. eigenvalues --    0.24170   0.24231   0.24297   0.24624   0.25163
 Alpha virt. eigenvalues --    0.25389   0.25522   0.25831   0.25859   0.26109
 Alpha virt. eigenvalues --    0.27024   0.27292   0.27870   0.28476   0.28853
 Alpha virt. eigenvalues --    0.28975   0.29231   0.29724   0.30186   0.30371
 Alpha virt. eigenvalues --    0.30783   0.31452   0.31695   0.32461   0.33008
 Alpha virt. eigenvalues --    0.33621   0.33983   0.34089   0.34831   0.35239
 Alpha virt. eigenvalues --    0.35419   0.35497   0.35661   0.36554   0.38097
 Alpha virt. eigenvalues --    0.38267   0.38734   0.38894   0.40477   0.40610
 Alpha virt. eigenvalues --    0.41426   0.41640   0.41901   0.42099   0.42848
 Alpha virt. eigenvalues --    0.43030   0.43480   0.43986   0.44230   0.44765
 Alpha virt. eigenvalues --    0.45616   0.45918   0.47253   0.48413   0.48530
 Alpha virt. eigenvalues --    0.49193   0.49496   0.50409   0.51347   0.51755
 Alpha virt. eigenvalues --    0.52452   0.52818   0.53238   0.54123   0.54164
 Alpha virt. eigenvalues --    0.54232   0.55330   0.56218   0.56425   0.56926
 Alpha virt. eigenvalues --    0.56947   0.57112   0.58399   0.58842   0.59809
 Alpha virt. eigenvalues --    0.60040   0.60693   0.60704   0.60800   0.60988
 Alpha virt. eigenvalues --    0.62167   0.62857   0.63247   0.63434   0.63517
 Alpha virt. eigenvalues --    0.64405   0.64660   0.65261   0.65330   0.65792
 Alpha virt. eigenvalues --    0.65848   0.66258   0.66664   0.67007   0.67843
 Alpha virt. eigenvalues --    0.67933   0.68097   0.68132   0.68594   0.68773
 Alpha virt. eigenvalues --    0.69015   0.69425   0.69934   0.70112   0.70893
 Alpha virt. eigenvalues --    0.71093   0.71141   0.71298   0.71417   0.71620
 Alpha virt. eigenvalues --    0.72084   0.72618   0.72649   0.73274   0.73448
 Alpha virt. eigenvalues --    0.73630   0.74780   0.74876   0.75324   0.76554
 Alpha virt. eigenvalues --    0.77032   0.77541   0.78616   0.79053   0.79257
 Alpha virt. eigenvalues --    0.79651   0.80394   0.80615   0.80826   0.81202
 Alpha virt. eigenvalues --    0.81497   0.82302   0.82425   0.83578   0.85288
 Alpha virt. eigenvalues --    0.85709   0.86201   0.89880   0.90974   0.91551
 Alpha virt. eigenvalues --    0.94291   0.94879   0.95077   0.96106   0.96764
 Alpha virt. eigenvalues --    0.98622   0.98848   0.99246   1.00204   1.00710
 Alpha virt. eigenvalues --    1.01536   1.02665   1.02993   1.03338   1.03835
 Alpha virt. eigenvalues --    1.04052   1.04513   1.05686   1.06228   1.07199
 Alpha virt. eigenvalues --    1.09567   1.10091   1.11920   1.14653   1.15084
 Alpha virt. eigenvalues --    1.18880   1.19432   1.21023   1.22827   1.23026
 Alpha virt. eigenvalues --    1.24934   1.25632   1.26203   1.27399   1.28330
 Alpha virt. eigenvalues --    1.29054   1.29602   1.29915   1.30554   1.31262
 Alpha virt. eigenvalues --    1.31880   1.32488   1.33771   1.34164   1.34763
 Alpha virt. eigenvalues --    1.35780   1.37111   1.37258   1.37896   1.38998
 Alpha virt. eigenvalues --    1.39961   1.42475   1.42971   1.43050   1.44509
 Alpha virt. eigenvalues --    1.44999   1.46615   1.46628   1.47481   1.48505
 Alpha virt. eigenvalues --    1.49017   1.49242   1.50521   1.51273   1.51459
 Alpha virt. eigenvalues --    1.52378   1.52385   1.53106   1.53537   1.53932
 Alpha virt. eigenvalues --    1.53992   1.55730   1.55767   1.56153   1.56280
 Alpha virt. eigenvalues --    1.57097   1.57215   1.58204   1.58792   1.60321
 Alpha virt. eigenvalues --    1.60689   1.60763   1.61050   1.61705   1.62901
 Alpha virt. eigenvalues --    1.63077   1.63131   1.63455   1.63718   1.64045
 Alpha virt. eigenvalues --    1.65808   1.66295   1.66397   1.67748   1.68035
 Alpha virt. eigenvalues --    1.68171   1.68445   1.68534   1.68698   1.68886
 Alpha virt. eigenvalues --    1.70102   1.70266   1.70744   1.70893   1.71643
 Alpha virt. eigenvalues --    1.72564   1.72729   1.73459   1.73778   1.74252
 Alpha virt. eigenvalues --    1.74630   1.75096   1.75970   1.76205   1.76843
 Alpha virt. eigenvalues --    1.77592   1.77626   1.77899   1.78919   1.79225
 Alpha virt. eigenvalues --    1.79384   1.79701   1.80918   1.82025   1.82202
 Alpha virt. eigenvalues --    1.83948   1.84961   1.85216   1.86413   1.87125
 Alpha virt. eigenvalues --    1.88449   1.88876   1.89095   1.90148   1.90770
 Alpha virt. eigenvalues --    1.91765   1.92366   1.92633   1.92957   1.93234
 Alpha virt. eigenvalues --    1.93957   1.96442   1.98293   1.99135   2.00209
 Alpha virt. eigenvalues --    2.01237   2.02982   2.05033   2.05153   2.07036
 Alpha virt. eigenvalues --    2.07292   2.07483   2.09118   2.10446   2.10891
 Alpha virt. eigenvalues --    2.11107   2.12203   2.14111   2.15013   2.15840
 Alpha virt. eigenvalues --    2.16960   2.17805   2.19290   2.20399   2.21080
 Alpha virt. eigenvalues --    2.21371   2.22628   2.23647   2.23898   2.24549
 Alpha virt. eigenvalues --    2.26221   2.26291   2.27894   2.28254   2.29131
 Alpha virt. eigenvalues --    2.30085   2.30316   2.32021   2.32803   2.33494
 Alpha virt. eigenvalues --    2.33826   2.35669   2.36400   2.36877   2.37961
 Alpha virt. eigenvalues --    2.38628   2.39044   2.39280   2.40110   2.40786
 Alpha virt. eigenvalues --    2.41559   2.41715   2.41934   2.42038   2.43579
 Alpha virt. eigenvalues --    2.43595   2.44269   2.45068   2.45643   2.45676
 Alpha virt. eigenvalues --    2.46225   2.47045   2.47471   2.48179   2.48523
 Alpha virt. eigenvalues --    2.48857   2.49123   2.49754   2.50779   2.52368
 Alpha virt. eigenvalues --    2.52594   2.53376   2.53810   2.54132   2.55061
 Alpha virt. eigenvalues --    2.55227   2.55860   2.56241   2.56913   2.57719
 Alpha virt. eigenvalues --    2.58100   2.59295   2.59812   2.60598   2.60689
 Alpha virt. eigenvalues --    2.60955   2.61625   2.62337   2.62753   2.63289
 Alpha virt. eigenvalues --    2.63609   2.63962   2.65071   2.65171   2.66418
 Alpha virt. eigenvalues --    2.66441   2.67327   2.67680   2.67967   2.69002
 Alpha virt. eigenvalues --    2.69213   2.69609   2.70003   2.71147   2.71380
 Alpha virt. eigenvalues --    2.71484   2.72390   2.73055   2.73404   2.73652
 Alpha virt. eigenvalues --    2.73856   2.74992   2.75563   2.75775   2.76018
 Alpha virt. eigenvalues --    2.77366   2.77488   2.78312   2.79201   2.79971
 Alpha virt. eigenvalues --    2.80503   2.80562   2.82386   2.83311   2.84916
 Alpha virt. eigenvalues --    2.85142   2.85309   2.88140   2.89575   2.89725
 Alpha virt. eigenvalues --    2.89745   2.90865   2.92691   2.94056   2.95124
 Alpha virt. eigenvalues --    2.95766   2.96390   2.96746   2.97192   2.99741
 Alpha virt. eigenvalues --    3.00509   3.04098   3.05505   3.05762   3.06400
 Alpha virt. eigenvalues --    3.06899   3.09478   3.10107   3.10624   3.14236
 Alpha virt. eigenvalues --    3.14597   3.20605   3.26435   3.31493   3.32952
 Alpha virt. eigenvalues --    3.35833   3.39713   3.42985   3.43345   3.43396
 Alpha virt. eigenvalues --    3.45973   3.48716   3.51686   3.54182   3.69752
 Alpha virt. eigenvalues --    3.70937   3.71135   3.74030   3.75380   3.76385
 Alpha virt. eigenvalues --    3.76451   3.81906   3.84284   3.86609   3.87895
 Alpha virt. eigenvalues --    3.88849   3.89506   3.90584   3.91344   3.92301
 Alpha virt. eigenvalues --    3.92826   3.93423   3.94989   3.95457   3.97166
 Alpha virt. eigenvalues --    3.97341   4.00366   4.07547   4.12032   4.14768
 Alpha virt. eigenvalues --    4.16338   4.17437   4.18946   4.21062   4.23685
 Alpha virt. eigenvalues --    4.26373   4.29094   4.31187   4.33808   4.34866
 Alpha virt. eigenvalues --    4.38010   4.38624   4.55069   4.55766   4.56969
 Alpha virt. eigenvalues --   23.80744  23.86449  23.86985  23.87543  23.88557
 Alpha virt. eigenvalues --   23.89318  23.91175  23.92663  23.93824  23.94517
 Alpha virt. eigenvalues --   23.94973  23.95925  23.96358  23.97500  23.98678
 Alpha virt. eigenvalues --   23.99389  24.00691  24.01089  24.07603  35.29772
[...]
 Alpha virt. eigenvalues --    0.69529   0.69809   0.69957   0.70037   0.70457
 Alpha virt. eigenvalues --    0.70857   0.71056   0.71860   0.72127   0.72361
 Alpha virt. eigenvalues --    0.73140   0.73493   0.73730   0.74371   0.75244
 Alpha virt. eigenvalues --    0.76040   0.76886   0.77214   0.77355   0.78077
 Alpha virt. eigenvalues --    0.78604   0.79070   0.79260   0.79480   0.79896
 Alpha virt. eigenvalues --    0.80417   0.80597   0.82032   0.83870   0.84283
 Alpha virt. eigenvalues --    0.84324   0.85969   0.88690   0.88704   0.90525
 Alpha virt. eigenvalues --    0.93114   0.93509   0.94252   0.94991   0.95222
 Alpha virt. eigenvalues --    0.98297   0.98950   0.98978   0.99643   1.00188
 Alpha virt. eigenvalues --    1.00897   1.02206   1.02536   1.03816   1.04509
 Alpha virt. eigenvalues --    1.04938   1.05051   1.05945   1.06294   1.07089
 Alpha virt. eigenvalues --    1.09211   1.10682   1.12078   1.15016   1.15255
 Alpha virt. eigenvalues --    1.18916   1.19324   1.21142   1.22741   1.23085
 Alpha virt. eigenvalues --    1.24905   1.24926   1.26225   1.27368   1.28014
 Alpha virt. eigenvalues --    1.28363   1.28965   1.30040   1.30427   1.31261
 Alpha virt. eigenvalues --    1.31432   1.31645   1.32214   1.32340   1.34427
 Alpha virt. eigenvalues --    1.34633   1.35977   1.36459   1.36817   1.38311
 Alpha virt. eigenvalues --    1.38937   1.40825   1.41296   1.41942   1.43018
 Alpha virt. eigenvalues --    1.45321   1.45667   1.46820   1.47003   1.48018
 Alpha virt. eigenvalues --    1.48680   1.49414   1.49599   1.50967   1.51429
 Alpha virt. eigenvalues --    1.51746   1.52046   1.52593   1.53880   1.54002
 Alpha virt. eigenvalues --    1.55327   1.55962   1.56421   1.57024   1.57084
 Alpha virt. eigenvalues --    1.58224   1.58525   1.59044   1.59345   1.60319
 Alpha virt. eigenvalues --    1.60919   1.61354   1.61390   1.62010   1.62424
 Alpha virt. eigenvalues --    1.62888   1.63474   1.63700   1.63852   1.64921
 Alpha virt. eigenvalues --    1.65486   1.65653   1.66631   1.67490   1.67600
 Alpha virt. eigenvalues --    1.67627   1.68178   1.68193   1.68990   1.69104
 Alpha virt. eigenvalues --    1.69441   1.70287   1.70556   1.71183   1.71270
 Alpha virt. eigenvalues --    1.71758   1.72202   1.73134   1.73781   1.74159
 Alpha virt. eigenvalues --    1.74262   1.74354   1.74922   1.75575   1.75626
 Alpha virt. eigenvalues --    1.76444   1.76525   1.76953   1.77317   1.78210
 Alpha virt. eigenvalues --    1.78341   1.79314   1.79378   1.81553   1.82343
 Alpha virt. eigenvalues --    1.84234   1.84926   1.85042   1.85706   1.86456
 Alpha virt. eigenvalues --    1.87673   1.87791   1.88580   1.89840   1.90011
 Alpha virt. eigenvalues --    1.91098   1.91280   1.91892   1.92591   1.93289
 Alpha virt. eigenvalues --    1.93584   1.94337   1.96018   1.96781   1.97581
 Alpha virt. eigenvalues --    1.99695   2.00664   2.01513   2.04277   2.04300
 Alpha virt. eigenvalues --    2.05370   2.06375   2.06999   2.09164   2.09212
 Alpha virt. eigenvalues --    2.10138   2.10900   2.11744   2.12943   2.14386
 Alpha virt. eigenvalues --    2.15776   2.16929   2.17275   2.18411   2.19377
 Alpha virt. eigenvalues --    2.20685   2.20935   2.21817   2.22688   2.23543
 Alpha virt. eigenvalues --    2.24447   2.24818   2.26535   2.27442   2.27477
 Alpha virt. eigenvalues --    2.28296   2.29033   2.29800   2.31215   2.32156
 Alpha virt. eigenvalues --    2.32254   2.34089   2.34113   2.35147   2.35966
 Alpha virt. eigenvalues --    2.36604   2.36767   2.37111   2.37354   2.38343
 Alpha virt. eigenvalues --    2.38592   2.38776   2.38956   2.38999   2.39818
 Alpha virt. eigenvalues --    2.41194   2.41772   2.42031   2.42683   2.42868
 Alpha virt. eigenvalues --    2.43851   2.44431   2.45233   2.45929   2.46248
 Alpha virt. eigenvalues --    2.48393   2.49356   2.49694   2.50238   2.50432
 Alpha virt. eigenvalues --    2.50762   2.50781   2.52625   2.53139   2.53705
 Alpha virt. eigenvalues --    2.54374   2.55050   2.55981   2.56128   2.56409
 Alpha virt. eigenvalues --    2.56685   2.57004   2.58181   2.58242   2.58666
 Alpha virt. eigenvalues --    2.59364   2.59805   2.59927   2.60714   2.61519
 Alpha virt. eigenvalues --    2.61780   2.62798   2.63110   2.63537   2.64879
 Alpha virt. eigenvalues --    2.65404   2.65681   2.66121   2.66819   2.66824
 Alpha virt. eigenvalues --    2.67572   2.68248   2.69107   2.69964   2.70005
 Alpha virt. eigenvalues --    2.71193   2.71403   2.72712   2.72833   2.73428
 Alpha virt. eigenvalues --    2.73491   2.74856   2.75007   2.75625   2.75685
 Alpha virt. eigenvalues --    2.76638   2.77082   2.77900   2.78083   2.78990
 Alpha virt. eigenvalues --    2.79496   2.80169   2.80669   2.81324   2.81694
 Alpha virt. eigenvalues --    2.81911   2.84974   2.85951   2.86107   2.87950
 Alpha virt. eigenvalues --    2.89003   2.90871   2.92701   2.94129   2.94999
 Alpha virt. eigenvalues --    2.95500   2.96198   2.97099   2.97331   2.98590
 Alpha virt. eigenvalues --    3.00547   3.01204   3.02057   3.07600   3.08084
 Alpha virt. eigenvalues --    3.09176   3.11037   3.11952   3.13095   3.15875
 Alpha virt. eigenvalues --    3.17616   3.23105   3.27360   3.28564   3.33713
 Alpha virt. eigenvalues --    3.38536   3.42989   3.46587   3.46981   3.47122
 Alpha virt. eigenvalues --    3.51054   3.53352   3.54630   3.58318   3.66418
 Alpha virt. eigenvalues --    3.66846   3.68342   3.70608   3.72415   3.72994
 Alpha virt. eigenvalues --    3.73485   3.75274   3.77260   3.79379   3.80440
 Alpha virt. eigenvalues --    3.81730   3.82236   3.83833   3.84324   3.86121
 Alpha virt. eigenvalues --    3.86630   3.86693   3.88380   3.88878   3.90481
 Alpha virt. eigenvalues --    3.90954   3.93989   4.03626   4.07340   4.09516
 Alpha virt. eigenvalues --    4.10829   4.12051   4.13798   4.16290   4.19490
 Alpha virt. eigenvalues --    4.23275   4.27588   4.32114   4.36498   4.40452
 Alpha virt. eigenvalues --    4.43791   4.46500   4.62443   4.63665   4.64963
 Alpha virt. eigenvalues --   23.78311  23.82336  23.82698  23.84094  23.84659
 Alpha virt. eigenvalues --   23.85486  23.87250  23.89020  23.90187  23.91077
 Alpha virt. eigenvalues --   23.91898  23.92148  23.92609  23.93252  23.93864
 Alpha virt. eigenvalues --   23.94495  23.95925  23.96413  24.01754  35.31117
          Condensed to atoms (all electrons):
 Mulliken charges:
               1
     1  C   -0.262133
     2  H    0.215172
     3  H    0.215155
     4  H    0.213832
     5  C   -0.253854
     6  H    0.212510
     7  H    0.213360
     8  H    0.220254
     9  C   -0.253831
    10  H    0.220245
    11  H    0.213349
    12  H    0.212508
    13  C   -0.463256
    14  H    0.222891
    15  H    0.222880
    16  C   -0.306107
    17  H    0.166828
    18  H    0.166865
    19  C   -0.155149
    20  H    0.164097
    21  H    0.164097
    22  C   -0.118530
    23  H    0.154263
    24  H    0.154265
    25  C   -0.276848
    26  H    0.151313
    27  H    0.151310
    28  C   -0.356437
    29  H    0.148120
    30  H    0.148121
    31  C   -0.408449
    32  H    0.147317
    33  H    0.147317
    34  C   -0.380960
    35  H    0.145930
    36  H    0.145931
    37  C   -0.292811
    38  H    0.145473
    39  H    0.145472
    40  C   -0.157152
    41  H    0.144673
    42  H    0.144674
    43  C   -0.074416
    44  H    0.144207
    45  H    0.144207
    46  C   -0.144029
    47  H    0.143917
    48  H    0.143918
    49  C   -0.301650
    50  H    0.142641
    51  H    0.142641
    52  C   -0.464094
    53  H    0.140543
    54  H    0.140543
    55  C   -0.265912
    56  H    0.136883
    57  H    0.136883
    58  C   -0.594966
    59  H    0.133278
    60  H    0.142099
    61  H    0.133278
    62  N   -0.412679
 Sum of Mulliken charges =   1.00000
 Mulliken charges with hydrogens summed into heavy atoms:
               1
     1  C    0.382026
     5  C    0.392271
     9  C    0.392271
    13  C   -0.017485
    16  C    0.027586
    19  C    0.173045
    22  C    0.189999
    25  C    0.025775
    28  C   -0.060196
    31  C   -0.113814
    34  C   -0.089099
    37  C   -0.001866
    40  C    0.132195
    43  C    0.213998
    46  C    0.143805
    49  C   -0.016367
    52  C   -0.183008
    55  C    0.007854
    58  C   -0.186312
    62  N   -0.412679
 Electronic spatial extent (au):  <R**2>=          29102.1800
 Charge=              1.0000 electrons
 Dipole moment (field-independent basis, Debye):
    X=            -38.1454    Y=              0.3222    Z=              0.0004  Tot=             38.1468
 Quadrupole moment (field-independent basis, Debye-Ang):
   XX=            207.2408   YY=           -129.0056   ZZ=           -125.1429
   XY=             -3.9840   XZ=             -0.0041   YZ=              0.0001
 Traceless Quadrupole moment (field-independent basis, Debye-Ang):
   XX=            222.8767   YY=           -113.3697   ZZ=           -109.5070
   XY=             -3.9840   XZ=             -0.0041   YZ=              0.0001
 Octapole moment (field-independent basis, Debye-Ang**2):
  XXX=          -3065.8168  YYY=              2.3825  ZZZ=              0.0031  XYY=            -91.0606
  XXY=             19.3972  XXZ=              0.0370  XZZ=            -80.4531  YZZ=              2.1277
  YYZ=              0.0005  XYZ=              0.0005
 Hexadecapole moment (field-independent basis, Debye-Ang**3):
 XXXX=         -11719.8042 YYYY=           -570.3887 ZZZZ=           -392.8235 XXXY=           -376.2180
 XXXZ=             -0.3392 YYYX=            -20.5756 YYYZ=             -0.0041 ZZZX=             -0.0311
 ZZZY=              0.0026 XXYY=          -6196.5822 XXZZ=          -6046.5416 YYZZ=           -144.9668
 XXYZ=              0.0016 YYXZ=             -0.0029 ZZXY=            -14.7728
 N-N= 1.434555819983D+03 E-N=-4.713356610611D+03  KE= 8.000761774340D+02
 No NMR shielding tensors so no spin-rotation constants.
 Leave Link  601 at Wed Sep 30 05:39:14 2020, MaxMem=  3221225472 cpu:               2.4 elap:               0.5
 (Enter /usr/local/Gaussian/gaussian-16-A03-avx2/g16/linda-exe/l602.exel)
 FitSet:  NAtFit=    62 NAtPot=    62 NAtFrz=     0 MDM=    66 TotChg=   1.00000
 Breneman (CHELPG) radii used.
 Generate Potential Derived Charges using the Breneman model, NDens= 1.
 Grid spacing= 0.300 Box extension= 2.800
 NStep X,Y,Z=   98     31     34   Total possible points=      103292
 Number of Points to Fit=   31387

 **********************************************************************

            Electrostatic Properties Using The SCF Density

 **********************************************************************

       Atomic Center    1 is at  -9.636063 -0.980981 -0.000134
       Atomic Center    5 is at  -8.745006  0.925693 -1.221133
       Atomic Center    9 is at  -8.744777  0.924894  1.221934
       Atomic Center   13 is at  -7.221958 -0.614348 -0.000221
       Atomic Center   16 is at  -6.003141  0.291042 -0.000168
       Atomic Center   19 is at  -4.724209 -0.552437 -0.000127
       Atomic Center   22 is at  -3.459906  0.302773 -0.000161
       Atomic Center   25 is at  -2.179491 -0.527272 -0.000103
       Atomic Center   28 is at  -0.912790  0.323462 -0.000131
       Atomic Center   31 is at   0.369376 -0.503572 -0.000076
       Atomic Center   34 is at   1.636813  0.345797 -0.000092
       Atomic Center   37 is at   2.919752 -0.479944 -0.000039
       Atomic Center   40 is at   4.187479  0.368951 -0.000048
       Atomic Center   43 is at   5.470840 -0.456104  0.000005
       Atomic Center   46 is at   6.738649  0.392657 -0.000001
       Atomic Center   49 is at   8.022310 -0.431957  0.000052
       Atomic Center   52 is at   9.290100  0.416513  0.000049
       Atomic Center   55 is at  10.574691 -0.407037  0.000102
       Atomic Center   58 is at  11.835229  0.451018  0.000099
       Atomic Center   62 is at  -8.577660  0.077977  0.000107
   31387 points will be used for fitting atomic charges
 Fitting point charges to electrostatic potential
 Charges from ESP fit, RMS=   0.00213 RRMS=   0.02482:
 ESP charges:
               1
     1  C   -0.339291
     2  H    0.165665
     3  H    0.165806
     4  H    0.172875
     5  C   -0.248059
     6  H    0.140802
     7  H    0.142049
     8  H    0.157710
     9  C   -0.250022
    10  H    0.158147
    11  H    0.142563
    12  H    0.141449
    13  C   -0.244302
    14  H    0.131620
    15  H    0.131589
    16  C    0.104754
    17  H    0.014282
    18  H    0.014278
    19  C   -0.017839
    20  H    0.021278
    21  H    0.021268
    22  C   -0.031334
    23  H    0.008728
    24  H    0.008689
    25  C    0.051503
    26  H   -0.010820
    27  H   -0.010813
    28  C    0.057871
    29  H   -0.019632
    30  H   -0.019611
    31  C    0.037893
    32  H   -0.019103
    33  H   -0.019111
    34  C    0.033464
    35  H   -0.015573
    36  H   -0.015568
    37  C    0.048300
    38  H   -0.018390
    39  H   -0.018398
    40  C    0.020355
    41  H   -0.016681
    42  H   -0.016664
    43  C    0.057005
    44  H   -0.021971
    45  H   -0.021944
    46  C    0.076746
    47  H   -0.025159
    48  H   -0.025183
    49  C   -0.037851
    50  H   -0.005164
    51  H   -0.005257
    52  C    0.029365
    53  H   -0.013248
    54  H   -0.013216
    55  C    0.203274
    56  H   -0.043707
    57  H   -0.043535
    58  C   -0.235759
    59  H    0.046256
    60  H    0.055912
    61  H    0.046316
    62  N    0.215396
 Sum of ESP charges =   1.00000
 ESP charges with hydrogens summed into heavy atoms:
               1
     1  C    0.165055
     5  C    0.192501
     9  C    0.192136
    13  C    0.018907
    16  C    0.133314
    19  C    0.024706
    22  C   -0.013918
    25  C    0.029870
    28  C    0.018628
    31  C   -0.000321
    34  C    0.002323
    37  C    0.011512
    40  C   -0.012990
    43  C    0.013090
    46  C    0.026404
    49  C   -0.048273
    52  C    0.002900
    55  C    0.116032
    58  C   -0.087274
    62  N    0.215396
 Charge=   1.00000 Dipole=   -38.0938     0.3194     0.0008 Tot=    38.0951
 -----------------------------------------------------------------

              Electrostatic Properties (Atomic Units)

 -----------------------------------------------------------------
    Center     Electric         -------- Electric Field --------
               Potential          X             Y             Z
 -----------------------------------------------------------------
    1 Atom    -14.561880
    2 Atom     -0.918319
    3 Atom     -0.918319
    4 Atom     -0.918123
    5 Atom    -14.562653
    6 Atom     -0.918678
    7 Atom     -0.920139
    8 Atom     -0.918633
    9 Atom    -14.562654
   10 Atom     -0.918634
   11 Atom     -0.920138
   12 Atom     -0.918678
   13 Atom    -14.562886
   14 Atom     -0.931833
   15 Atom     -0.931835
   16 Atom    -14.624680
   17 Atom     -0.970979
   18 Atom     -0.970986
   19 Atom    -14.654166
   20 Atom     -1.003486
   21 Atom     -1.003487
   22 Atom    -14.678985
   23 Atom     -1.026628
   24 Atom     -1.026629
   25 Atom    -14.697043
   26 Atom     -1.044290
   27 Atom     -1.044290
   28 Atom    -14.710223
   29 Atom     -1.057267
   30 Atom     -1.057267
   31 Atom    -14.720600
   32 Atom     -1.067525
   33 Atom     -1.067525
   34 Atom    -14.728614
   35 Atom     -1.075435
   36 Atom     -1.075435
   37 Atom    -14.735094
   38 Atom     -1.081869
   39 Atom     -1.081869
   40 Atom    -14.740286
   41 Atom     -1.087013
   42 Atom     -1.087013
   43 Atom    -14.744581
   44 Atom     -1.091283
   45 Atom     -1.091283
   46 Atom    -14.748068
   47 Atom     -1.094773
   48 Atom     -1.094773
   49 Atom    -14.751046
   50 Atom     -1.097631
   51 Atom     -1.097631
   52 Atom    -14.753709
   53 Atom     -1.100037
   54 Atom     -1.100037
   55 Atom    -14.752968
   56 Atom     -1.102426
   57 Atom     -1.102426
   58 Atom    -14.761859
   59 Atom     -1.098358
   60 Atom     -1.098041
   61 Atom     -1.098358
   62 Atom    -18.100500
 -----------------------------------------------------------------
 Leave Link  602 at Wed Sep 30 05:39:17 2020, MaxMem=  3221225472 cpu:              12.7 elap:               2.2
 (Enter /usr/local/Gaussian/gaussian-16-A03-avx2/g16/l9999.exe)
 1\1\GINC-NODE-021\SP\RCAM-B3LYP\6-311+G(d,p)\C19H42N1(1+)\ROOT\30-Sep-
 2020\0\\#P CAM-B3LYP/6-311+G** Guess=Read Geom=Check Pop=CHelpG\\CTAB 
 charge distribution\\1,1\C,0,-1.6348596692,-0.9639055647,0.1491467486\
 H,0,-1.9096868175,-1.4547209796,1.0804315044\H,0,-1.9094773027,0.08806
 69304,0.1899045995\H,0,-2.138464471,-1.4460782262,-0.6863079534\C,0,0.
 2155461524,-2.5228594976,-0.107538048\H,0,-0.355767622,-2.9934339434,-
 0.9053594685\H,0,1.2775908393,-2.6180259535,-0.3131592821\H,0,-0.02375
 44876,-2.9918468713,0.8449431895\C,0,0.215767672,-0.407155382,-1.32916
 46054\H,0,-0.0237060663,0.6521871726,-1.2593206605\H,0,1.277878611,-0.
 5375205989,-1.5141039295\H,0,-0.3552732652,-0.8630236103,-2.1356725083
 \C,0,0.5235348424,-0.3931265491,1.1380169306\H,0,0.1414265362,-0.89861
 17491,2.0262939854\H,0,0.1417308297,0.6290022733,1.1440816199\C,0,2.04
 18365576,-0.394582046,1.1360289873\H,0,2.4315325585,0.1103414324,0.248
 6995621\H,0,2.4312016592,-1.4156219276,1.1304913383\C,0,2.5678395255,0
 .325262234,2.3819301067\H,0,2.18207167,-0.169038316,3.2801397353\H,0,2
 .1824795374,1.3504558638,2.4020461816\C,0,4.0928409778,0.3574489172,2.
 438340047\H,0,4.4794674615,0.8507496107,1.5392992146\H,0,4.4790558681,
 -0.6679682858,2.416966279\C,0,4.6280287255,1.0723452228,3.6756494552\H
 ,0,4.2409800992,0.5799504005,4.5751879006\H,0,4.2413842848,2.097739058
 1,3.6980609462\C,0,6.1522944387,1.1070512452,3.7364062849\H,0,6.539920
 3782,1.599210341,2.8367739093\H,0,6.5395180247,0.0816942766,3.71373904
 97\C,0,6.690680851,1.8212552142,4.9725241119\H,0,6.3033386976,1.329535
 2452,5.8725752132\H,0,6.3037299176,2.8467513327,4.9957877083\C,0,8.214
 7260986,1.8567388501,5.0346045962\H,0,8.6025132328,2.3484489463,4.1346
 414333\H,0,8.6021234897,0.8313243537,5.0113729501\C,0,8.7545039195,2.5
 70651361,6.2702213665\H,0,8.3670652567,2.0792003707,7.1705011567\H,0,8
 .3674468026,3.5962075462,6.2938405416\C,0,10.278499226,2.6064187371,6.
 3327771902\H,0,10.6662831607,3.097913981,5.4326218968\H,0,10.665902428
 6,1.580948581,6.3092564999\C,0,10.8190247409,3.3201802587,7.5681347718
 \H,0,10.4315536887,2.8288598303,8.4685313322\H,0,10.4319319048,4.34577
 10801,7.5919288281\C,0,12.3430056406,3.3560283628,7.6308250512\H,0,12.
 730746615,3.8473941073,6.7305551696\H,0,12.7303688222,2.3305247363,7.6
 071340694\C,0,12.8840346776,4.0697023227,8.8660296854\H,0,12.496591418
 7,3.5784487875,9.7665228021\H,0,12.4969663804,5.0953421416,8.889931033
 2\C,0,14.4078280216,4.1056641467,8.9289111814\H,0,14.7965542669,4.5972
 116796,8.0289644448\H,0,14.7961796294,3.0803506159,8.9055363122\C,0,14
 .9502376299,4.8191862319,10.1638550395\H,0,14.5624820025,4.327759097,1
 1.0628815022\H,0,14.5628551695,5.8436414659,10.1868757202\C,0,16.47390
 56331,4.8491356308,10.2163299064\H,0,16.8881754049,5.3644329306,9.3455
 697296\H,0,16.834095746,5.3648763414,11.1089461769\H,0,16.8877995327,3
 .8372427964,10.2281096655\N,0,-0.1541086749,-1.0746977199,-0.042450336
 5\\Version=ES64L-G16RevA.03\State=1-A\HF=-803.5861781\RMSD=4.465e-09\D
 ipole=-11.9863153,-4.5163621,-7.8213759\Quadrupole=74.3610713,-59.2938
 788,-15.0671925,60.2156127,104.2793443,38.3112682\PG=C01 [X(C19H42N1)]
 \\@


 SOME PHYSICISTS WOULD PREFER TO COME BACK TO THE IDEA OF AN OBJECTIVE
 REAL WORLD WHOSE SMALLEST PARTS EXIST OBJECTIVELY IN THE SAME SENSE AS
 STONES OR TREES EXIST INDEPENDENTLY OF WHETHER WE OBSERVE THEM.
 THIS, HOWEVER, IS IMPOSSIBLE.  -- WERNER HEISENBERG
 Job cpu time:       0 days  0 hours  0 minutes  6.2 seconds.
 Elapsed time:       0 days  0 hours  0 minutes 26.6 seconds.
 File lengths (MBytes):  RWF=    247 Int=      0 D2E=      0 Chk=     38 Scr=      1
 Normal termination of Gaussian 16 at Wed Sep 30 05:39:18 2020.
