 Set GAUSS_PDEF to "6".
 Set GAUSS_MDEF to "24576MB".
 Set GAUSS_WDEF to "node-024:1,node-030:1".
 Set GAUSS_SDEF to "ssh".
 Entering Gaussian System, Link 0=g16
 Initial command:
 /usr/local/Gaussian/gaussian-16-A03-avx2/g16/l1.exe "/tmp/168428.bcm-head.cm.cluster/Gau-7224.inp" -scrdir="/tmp/168428.bcm-head.cm.cluster/"
 Default linda workers: node-024:1,node-030:1
 Default is to use   6 SMP processors on each worker.
 Entering Link 1 = /usr/local/Gaussian/gaussian-16-A03-avx2/g16/l1.exe PID=      7233.
  
 Copyright (c) 1988,1990,1992,1993,1995,1998,2003,2009,2016,
            Gaussian, Inc.  All Rights Reserved.
  
 This is part of the Gaussian(R) 16 program.  It is based on
 the Gaussian(R) 09 system (copyright 2009, Gaussian, Inc.),
 the Gaussian(R) 03 system (copyright 2003, Gaussian, Inc.),
 the Gaussian(R) 98 system (copyright 1998, Gaussian, Inc.),
 the Gaussian(R) 94 system (copyright 1995, Gaussian, Inc.),
 the Gaussian 92(TM) system (copyright 1992, Gaussian, Inc.),
 the Gaussian 90(TM) system (copyright 1990, Gaussian, Inc.),
 the Gaussian 88(TM) system (copyright 1988, Gaussian, Inc.),
 the Gaussian 86(TM) system (copyright 1986, Carnegie Mellon
 University), and the Gaussian 82(TM) system (copyright 1983,
 Carnegie Mellon University). Gaussian is a federally registered
 trademark of Gaussian, Inc.
  
 This software contains proprietary and confidential information,
 including trade secrets, belonging to Gaussian, Inc.
  
 This software is provided under written license and may be
 used, copied, transmitted, or stored only in accord with that
 written license.
  
 The following legend is applicable only to US Government
 contracts under FAR:
  
                    RESTRICTED RIGHTS LEGEND
  
 Use, reproduction and disclosure by the US Government is
 subject to restrictions as set forth in subparagraphs (a)
 and (c) of the Commercial Computer Software - Restricted
 Rights clause in FAR 52.227-19.
  
 Gaussian, Inc.
 340 Quinnipiac St., Bldg. 40, Wallingford CT 06492
  
  
 ---------------------------------------------------------------
 Warning -- This program may not be used in any manner that
 competes with the business of Gaussian, Inc. or will provide
 assistance to any competitor of Gaussian, Inc.  The licensee
 of this program is prohibited from giving any competitor of
 Gaussian, Inc. access to this program.  By using this program,
 the user acknowledges that Gaussian, Inc. is engaged in the
 business of creating and licensing software in the field of
 computational chemistry and represents and warrants to the
 licensee that it is not a competitor of Gaussian, Inc. and that
 it will not use this program in any manner prohibited above.
 ---------------------------------------------------------------
  

 Cite this work as:
 Gaussian 16, Revision A.03,
 M. J. Frisch, G. W. Trucks, H. B. Schlegel, G. E. Scuseria, 
 M. A. Robb, J. R. Cheeseman, G. Scalmani, V. Barone, 
 G. A. Petersson, H. Nakatsuji, X. Li, M. Caricato, A. V. Marenich, 
 J. Bloino, B. G. Janesko, R. Gomperts, B. Mennucci, H. P. Hratchian, 
 J. V. Ortiz, A. F. Izmaylov, J. L. Sonnenberg, D. Williams-Young, 
 F. Ding, F. Lipparini, F. Egidi, J. Goings, B. Peng, A. Petrone, 
 T. Henderson, D. Ranasinghe, V. G. Zakrzewski, J. Gao, N. Rega, 
 G. Zheng, W. Liang, M. Hada, M. Ehara, K. Toyota, R. Fukuda, 
 J. Hasegawa, M. Ishida, T. Nakajima, Y. Honda, O. Kitao, H. Nakai, 
 T. Vreven, K. Throssell, J. A. Montgomery, Jr., J. E. Peralta, 
 F. Ogliaro, M. J. Bearpark, J. J. Heyd, E. N. Brothers, K. N. Kudin, 
 V. N. Staroverov, T. A. Keith, R. Kobayashi, J. Normand, 
 K. Raghavachari, A. P. Rendell, J. C. Burant, S. S. Iyengar, 
 J. Tomasi, M. Cossi, J. M. Millam, M. Klene, C. Adamo, R. Cammi, 
 J. W. Ochterski, R. L. Martin, K. Morokuma, O. Farkas, 
 J. B. Foresman, and D. J. Fox, Gaussian, Inc., Wallingford CT, 2016.
 
 ******************************************
 Gaussian 16:  ES64L-G16RevA.03 25-Dec-2016
                 1-Oct-2020 
 ******************************************
 %chk=NEt4
 SetLPE:  input flags="-env GAUSS_SCRDIR=/tmp/168428.bcm-head.cm.cluster "
 SetLPE:    new flags="-env GAUSS_SCRDIR=/tmp/168428.bcm-head.cm.cluster -opt 'Tsnet.Node.lindarsharg: ssh'  -nodelist 'node-024.hpc.cc.spbu.ru node-030.hpc.cc.spbu.ru' -env GAUSS_MDEF=3221225472 -env GAUSS_EXEDIR="/usr/local/Gaussian/gaussian-16-A03-avx2/g16/bsd:/usr/local/Gaussian/gaussian-16-A03-avx2/g16""
 Will use up to    2 processors via Linda.
 Default route: Maxdisk=213GB Cachesize=163840
 ----------------------------------
 #P CAM-B3LYP/6-311+G** Opt SCF=XQC
 ----------------------------------
 1/4=163840,18=20,19=15,26=3,38=1/1,3;
 2/4=163840,9=110,12=2,17=6,18=5,40=1/2;
 3/4=163840,5=4,6=6,7=111,11=2,25=1,30=1,71=1,74=-40/1,2,3;
 4/4=163840/1;
 5/4=163840,5=2,8=3,13=1,38=5/2,8;
 6/4=163840,7=2,8=2,9=2,10=2,28=1/1;
 7/4=163840/1,2,3,16;
 1/4=163840,18=20,19=15,26=3/3(2);
 2/4=163840,9=110/2;
 99/4=163840/99;
 2/4=163840,9=110/2;
 3/4=163840,5=4,6=6,7=111,11=2,25=1,30=1,71=1,74=-40/1,2,3;
 4/4=163840,5=5,16=3,69=1/1;
 5/4=163840,5=2,8=3,13=1,38=5/2,8;
 7/4=163840/1,2,3,16;
 1/4=163840,18=20,19=15,26=3/3(-5);
 2/4=163840,9=110/2;
 6/4=163840,7=2,8=2,9=2,10=2,19=2,28=1/1;
 99/4=163840,9=1/99;
 Leave Link    1 at Thu Oct  1 18:02:14 2020, MaxMem=           0 cpu:               0.6 elap:               0.2
 (Enter /usr/local/Gaussian/gaussian-16-A03-avx2/g16/l101.exe)
 --------------------------
 NEt4 geometry optimization
 --------------------------
 Symbolic Z-matrix:
 Charge =  1 Multiplicity = 1
 C                    -1.36427  -0.7322    0. 
 H                    -1.72092   0.27661   0.00196 
 H                    -1.72094  -1.2349   -0.87463 
 C                    -1.87761  -1.46059   1.25599 
 H                    -1.52063  -0.95811   2.13062 
 H                    -2.94761  -1.46025   1.25618 
 H                    -1.52126  -2.46951   1.25385 
 C                     0.68907  -0.00626   1.2574 
 H                     0.71944  -0.69234   2.07794 
 H                     0.03212   0.80438   1.49442 
 C                     2.10424   0.54043   0.99273 
 H                     2.06227   1.27993   0.22054 
 H                     2.48952   0.98137   1.88829 
 H                     2.74418  -0.26018   0.68547 
 C                     0.68907  -0.00626  -1.2574 
 H                     0.54411   1.04788  -1.14481 
 H                     1.73125  -0.21113  -1.38703 
 C                    -0.08889  -0.50262  -2.49029 
 H                    -1.04084  -0.01577  -2.53112 
 H                     0.46576  -0.27635  -3.37689 
 H                    -0.23212  -1.56063  -2.41946 
 C                     0.68905  -2.18415   0. 
 H                     0.74174  -2.54382   1.00636 
 H                     0.01934  -2.79922  -0.56398 
 C                     2.09041  -2.23318  -0.6367 
 H                     2.68938  -2.95745  -0.12526 
 H                     2.00433  -2.50558  -1.66785 
 H                     2.55119  -1.27058  -0.55935 
 N                     0.17573  -0.73222   0. 
 
 ITRead=  0  0  0  0  0  0  0  0  0  0  0  0  0  0  0  0  0  0  0  0
 ITRead=  0  0  0  0  0  0  0  0  0
 MicOpt= -1 -1 -1 -1 -1 -1 -1 -1 -1 -1 -1 -1 -1 -1 -1 -1 -1 -1 -1 -1
 MicOpt= -1 -1 -1 -1 -1 -1 -1 -1 -1
 NAtoms=     29 NQM=       29 NQMF=       0 NMMI=      0 NMMIF=      0
                NMic=       0 NMicF=      0.
                    Isotopes and Nuclear Properties:
 (Nuclear quadrupole moments (NQMom) in fm**2, nuclear magnetic moments (NMagM)
  in nuclear magnetons)

  Atom         1           2           3           4           5           6           7           8           9          10
 IAtWgt=          12           1           1          12           1           1           1          12           1           1
 AtmWgt=  12.0000000   1.0078250   1.0078250  12.0000000   1.0078250   1.0078250   1.0078250  12.0000000   1.0078250   1.0078250
 NucSpn=           0           1           1           0           1           1           1           0           1           1
 AtZEff=  -0.0000000  -0.0000000  -0.0000000  -0.0000000  -0.0000000  -0.0000000  -0.0000000  -0.0000000  -0.0000000  -0.0000000
 NQMom=    0.0000000   0.0000000   0.0000000   0.0000000   0.0000000   0.0000000   0.0000000   0.0000000   0.0000000   0.0000000
 NMagM=    0.0000000   2.7928460   2.7928460   0.0000000   2.7928460   2.7928460   2.7928460   0.0000000   2.7928460   2.7928460
 AtZNuc=   6.0000000   1.0000000   1.0000000   6.0000000   1.0000000   1.0000000   1.0000000   6.0000000   1.0000000   1.0000000

  Atom        11          12          13          14          15          16          17          18          19          20
 IAtWgt=          12           1           1           1          12           1           1          12           1           1
 AtmWgt=  12.0000000   1.0078250   1.0078250   1.0078250  12.0000000   1.0078250   1.0078250  12.0000000   1.0078250   1.0078250
 NucSpn=           0           1           1           1           0           1           1           0           1           1
 AtZEff=  -0.0000000  -0.0000000  -0.0000000  -0.0000000  -0.0000000  -0.0000000  -0.0000000  -0.0000000  -0.0000000  -0.0000000
 NQMom=    0.0000000   0.0000000   0.0000000   0.0000000   0.0000000   0.0000000   0.0000000   0.0000000   0.0000000   0.0000000
 NMagM=    0.0000000   2.7928460   2.7928460   2.7928460   0.0000000   2.7928460   2.7928460   0.0000000   2.7928460   2.7928460
 AtZNuc=   6.0000000   1.0000000   1.0000000   1.0000000   6.0000000   1.0000000   1.0000000   6.0000000   1.0000000   1.0000000

  Atom        21          22          23          24          25          26          27          28          29
 IAtWgt=           1          12           1           1          12           1           1           1          14
 AtmWgt=   1.0078250  12.0000000   1.0078250   1.0078250  12.0000000   1.0078250   1.0078250   1.0078250  14.0030740
 NucSpn=           1           0           1           1           0           1           1           1           2
 AtZEff=  -0.0000000  -0.0000000  -0.0000000  -0.0000000  -0.0000000  -0.0000000  -0.0000000  -0.0000000  -0.0000000
 NQMom=    0.0000000   0.0000000   0.0000000   0.0000000   0.0000000   0.0000000   0.0000000   0.0000000   2.0440000
 NMagM=    2.7928460   0.0000000   2.7928460   2.7928460   0.0000000   2.7928460   2.7928460   2.7928460   0.4037610
 AtZNuc=   1.0000000   6.0000000   1.0000000   1.0000000   6.0000000   1.0000000   1.0000000   1.0000000   7.0000000
 Leave Link  101 at Thu Oct  1 18:02:14 2020, MaxMem=  3221225472 cpu:               2.6 elap:               0.5
 (Enter /usr/local/Gaussian/gaussian-16-A03-avx2/g16/l103.exe)

 GradGradGradGradGradGradGradGradGradGradGradGradGradGradGradGradGradGrad
 Berny optimization.
 Initialization pass.
                           ----------------------------
                           !    Initial Parameters    !
                           ! (Angstroms and Degrees)  !
 --------------------------                            --------------------------
 ! Name  Definition              Value          Derivative Info.                !
 --------------------------------------------------------------------------------
 ! R1    R(1,2)                  1.07           estimate D2E/DX2                !
 ! R2    R(1,3)                  1.07           estimate D2E/DX2                !
 ! R3    R(1,4)                  1.54           estimate D2E/DX2                !
 ! R4    R(1,29)                 1.54           estimate D2E/DX2                !
 ! R5    R(4,5)                  1.07           estimate D2E/DX2                !
 ! R6    R(4,6)                  1.07           estimate D2E/DX2                !
 ! R7    R(4,7)                  1.07           estimate D2E/DX2                !
 ! R8    R(8,9)                  1.07           estimate D2E/DX2                !
 ! R9    R(8,10)                 1.07           estimate D2E/DX2                !
 ! R10   R(8,11)                 1.54           estimate D2E/DX2                !
 ! R11   R(8,29)                 1.54           estimate D2E/DX2                !
 ! R12   R(11,12)                1.07           estimate D2E/DX2                !
 ! R13   R(11,13)                1.07           estimate D2E/DX2                !
 ! R14   R(11,14)                1.07           estimate D2E/DX2                !
 ! R15   R(15,16)                1.07           estimate D2E/DX2                !
 ! R16   R(15,17)                1.07           estimate D2E/DX2                !
 ! R17   R(15,18)                1.54           estimate D2E/DX2                !
 ! R18   R(15,29)                1.54           estimate D2E/DX2                !
 ! R19   R(18,19)                1.07           estimate D2E/DX2                !
 ! R20   R(18,20)                1.07           estimate D2E/DX2                !
 ! R21   R(18,21)                1.07           estimate D2E/DX2                !
 ! R22   R(22,23)                1.07           estimate D2E/DX2                !
 ! R23   R(22,24)                1.07           estimate D2E/DX2                !
 ! R24   R(22,25)                1.54           estimate D2E/DX2                !
 ! R25   R(22,29)                1.54           estimate D2E/DX2                !
 ! R26   R(25,26)                1.07           estimate D2E/DX2                !
 ! R27   R(25,27)                1.07           estimate D2E/DX2                !
 ! R28   R(25,28)                1.07           estimate D2E/DX2                !
 ! A1    A(2,1,3)              109.4712         estimate D2E/DX2                !
 ! A2    A(2,1,4)              109.4713         estimate D2E/DX2                !
 ! A3    A(2,1,29)             109.4712         estimate D2E/DX2                !
 ! A4    A(3,1,4)              109.4712         estimate D2E/DX2                !
 ! A5    A(3,1,29)             109.4712         estimate D2E/DX2                !
 ! A6    A(4,1,29)             109.4712         estimate D2E/DX2                !
 ! A7    A(1,4,5)              109.4712         estimate D2E/DX2                !
 ! A8    A(1,4,6)              109.4712         estimate D2E/DX2                !
 ! A9    A(1,4,7)              109.4712         estimate D2E/DX2                !
 ! A10   A(5,4,6)              109.4713         estimate D2E/DX2                !
 ! A11   A(5,4,7)              109.4712         estimate D2E/DX2                !
 ! A12   A(6,4,7)              109.4712         estimate D2E/DX2                !
 ! A13   A(9,8,10)             109.4712         estimate D2E/DX2                !
 ! A14   A(9,8,11)             109.4713         estimate D2E/DX2                !
 ! A15   A(9,8,29)             109.4712         estimate D2E/DX2                !
 ! A16   A(10,8,11)            109.4712         estimate D2E/DX2                !
 ! A17   A(10,8,29)            109.4712         estimate D2E/DX2                !
 ! A18   A(11,8,29)            109.4712         estimate D2E/DX2                !
 ! A19   A(8,11,12)            109.4712         estimate D2E/DX2                !
 ! A20   A(8,11,13)            109.4712         estimate D2E/DX2                !
 ! A21   A(8,11,14)            109.4712         estimate D2E/DX2                !
 ! A22   A(12,11,13)           109.4713         estimate D2E/DX2                !
 ! A23   A(12,11,14)           109.4712         estimate D2E/DX2                !
 ! A24   A(13,11,14)           109.4712         estimate D2E/DX2                !
 ! A25   A(16,15,17)           109.4713         estimate D2E/DX2                !
 ! A26   A(16,15,18)           109.4712         estimate D2E/DX2                !
 ! A27   A(16,15,29)           109.4712         estimate D2E/DX2                !
 ! A28   A(17,15,18)           109.4712         estimate D2E/DX2                !
 ! A29   A(17,15,29)           109.4712         estimate D2E/DX2                !
 ! A30   A(18,15,29)           109.4712         estimate D2E/DX2                !
 ! A31   A(15,18,19)           109.4712         estimate D2E/DX2                !
 ! A32   A(15,18,20)           109.4712         estimate D2E/DX2                !
 ! A33   A(15,18,21)           109.4712         estimate D2E/DX2                !
 ! A34   A(19,18,20)           109.4713         estimate D2E/DX2                !
 ! A35   A(19,18,21)           109.4712         estimate D2E/DX2                !
 ! A36   A(20,18,21)           109.4712         estimate D2E/DX2                !
 ! A37   A(23,22,24)           109.4713         estimate D2E/DX2                !
 ! A38   A(23,22,25)           109.4712         estimate D2E/DX2                !
 ! A39   A(23,22,29)           109.4712         estimate D2E/DX2                !
 ! A40   A(24,22,25)           109.4712         estimate D2E/DX2                !
 ! A41   A(24,22,29)           109.4712         estimate D2E/DX2                !
 ! A42   A(25,22,29)           109.4712         estimate D2E/DX2                !
 ! A43   A(22,25,26)           109.4712         estimate D2E/DX2                !
 ! A44   A(22,25,27)           109.4712         estimate D2E/DX2                !
 ! A45   A(22,25,28)           109.4712         estimate D2E/DX2                !
 ! A46   A(26,25,27)           109.4713         estimate D2E/DX2                !
 ! A47   A(26,25,28)           109.4712         estimate D2E/DX2                !
 ! A48   A(27,25,28)           109.4712         estimate D2E/DX2                !
 ! A49   A(1,29,8)             109.4712         estimate D2E/DX2                !
 ! A50   A(1,29,15)            109.4712         estimate D2E/DX2                !
 ! A51   A(1,29,22)            109.4712         estimate D2E/DX2                !
 ! A52   A(8,29,15)            109.4713         estimate D2E/DX2                !
 ! A53   A(8,29,22)            109.4712         estimate D2E/DX2                !
 ! A54   A(15,29,22)           109.4712         estimate D2E/DX2                !
 ! D1    D(2,1,4,5)            -60.0214         estimate D2E/DX2                !
 ! D2    D(2,1,4,6)             59.9786         estimate D2E/DX2                !
 ! D3    D(2,1,4,7)            179.9786         estimate D2E/DX2                !
 ! D4    D(3,1,4,5)            179.9786         estimate D2E/DX2                !
 ! D5    D(3,1,4,6)            -60.0214         estimate D2E/DX2                !
 ! D6    D(3,1,4,7)             59.9786         estimate D2E/DX2                !
 ! D7    D(29,1,4,5)            59.9786         estimate D2E/DX2                !
 ! D8    D(29,1,4,6)           179.9786         estimate D2E/DX2                !
 ! D9    D(29,1,4,7)           -60.0214         estimate D2E/DX2                !
 ! D10   D(2,1,29,8)            59.8889         estimate D2E/DX2                !
 ! D11   D(2,1,29,15)          -60.1111         estimate D2E/DX2                !
 ! D12   D(2,1,29,22)          179.8889         estimate D2E/DX2                !
 ! D13   D(3,1,29,8)           179.8889         estimate D2E/DX2                !
 ! D14   D(3,1,29,15)           59.8889         estimate D2E/DX2                !
 ! D15   D(3,1,29,22)          -60.1111         estimate D2E/DX2                !
 ! D16   D(4,1,29,8)           -60.1111         estimate D2E/DX2                !
 ! D17   D(4,1,29,15)          179.8889         estimate D2E/DX2                !
 ! D18   D(4,1,29,22)           59.8889         estimate D2E/DX2                !
 ! D19   D(9,8,11,12)         -175.8546         estimate D2E/DX2                !
 ! D20   D(9,8,11,13)          -55.8545         estimate D2E/DX2                !
 ! D21   D(9,8,11,14)           64.1455         estimate D2E/DX2                !
 ! D22   D(10,8,11,12)         -55.8545         estimate D2E/DX2                !
 ! D23   D(10,8,11,13)          64.1455         estimate D2E/DX2                !
 ! D24   D(10,8,11,14)        -175.8545         estimate D2E/DX2                !
 ! D25   D(29,8,11,12)          64.1455         estimate D2E/DX2                !
 ! D26   D(29,8,11,13)        -175.8545         estimate D2E/DX2                !
 ! D27   D(29,8,11,14)         -55.8545         estimate D2E/DX2                !
 ! D28   D(9,8,29,1)            84.6602         estimate D2E/DX2                !
 ! D29   D(9,8,29,15)         -155.3398         estimate D2E/DX2                !
 ! D30   D(9,8,29,22)          -35.3398         estimate D2E/DX2                !
 ! D31   D(10,8,29,1)          -35.3398         estimate D2E/DX2                !
 ! D32   D(10,8,29,15)          84.6602         estimate D2E/DX2                !
 ! D33   D(10,8,29,22)        -155.3398         estimate D2E/DX2                !
 ! D34   D(11,8,29,1)         -155.3398         estimate D2E/DX2                !
 ! D35   D(11,8,29,15)         -35.3398         estimate D2E/DX2                !
 ! D36   D(11,8,29,22)          84.6602         estimate D2E/DX2                !
 ! D37   D(16,15,18,19)        -40.5024         estimate D2E/DX2                !
 ! D38   D(16,15,18,20)         79.4976         estimate D2E/DX2                !
 ! D39   D(16,15,18,21)       -160.5024         estimate D2E/DX2                !
 ! D40   D(17,15,18,19)       -160.5025         estimate D2E/DX2                !
 ! D41   D(17,15,18,20)        -40.5025         estimate D2E/DX2                !
 ! D42   D(17,15,18,21)         79.4975         estimate D2E/DX2                !
 ! D43   D(29,15,18,19)         79.4975         estimate D2E/DX2                !
 ! D44   D(29,15,18,20)       -160.5024         estimate D2E/DX2                !
 ! D45   D(29,15,18,21)        -40.5025         estimate D2E/DX2                !
 ! D46   D(16,15,29,1)          73.8929         estimate D2E/DX2                !
 ! D47   D(16,15,29,8)         -46.1071         estimate D2E/DX2                !
 ! D48   D(16,15,29,22)       -166.1071         estimate D2E/DX2                !
 ! D49   D(17,15,29,1)        -166.1071         estimate D2E/DX2                !
 ! D50   D(17,15,29,8)          73.8929         estimate D2E/DX2                !
 ! D51   D(17,15,29,22)        -46.1071         estimate D2E/DX2                !
 ! D52   D(18,15,29,1)         -46.1071         estimate D2E/DX2                !
 ! D53   D(18,15,29,8)        -166.1071         estimate D2E/DX2                !
 ! D54   D(18,15,29,22)         73.8929         estimate D2E/DX2                !
 ! D55   D(23,22,25,26)         23.4046         estimate D2E/DX2                !
 ! D56   D(23,22,25,27)        143.4046         estimate D2E/DX2                !
 ! D57   D(23,22,25,28)        -96.5954         estimate D2E/DX2                !
 ! D58   D(24,22,25,26)        -96.5955         estimate D2E/DX2                !
 ! D59   D(24,22,25,27)         23.4045         estimate D2E/DX2                !
 ! D60   D(24,22,25,28)        143.4045         estimate D2E/DX2                !
 ! D61   D(29,22,25,26)        143.4046         estimate D2E/DX2                !
 ! D62   D(29,22,25,27)        -96.5954         estimate D2E/DX2                !
 ! D63   D(29,22,25,28)         23.4046         estimate D2E/DX2                !
 ! D64   D(23,22,29,1)         -86.0093         estimate D2E/DX2                !
 ! D65   D(23,22,29,8)          33.9906         estimate D2E/DX2                !
 ! D66   D(23,22,29,15)        153.9907         estimate D2E/DX2                !
 ! D67   D(24,22,29,1)          33.9907         estimate D2E/DX2                !
 ! D68   D(24,22,29,8)         153.9907         estimate D2E/DX2                !
 ! D69   D(24,22,29,15)        -86.0093         estimate D2E/DX2                !
 ! D70   D(25,22,29,1)         153.9907         estimate D2E/DX2                !
 ! D71   D(25,22,29,8)         -86.0093         estimate D2E/DX2                !
 ! D72   D(25,22,29,15)         33.9907         estimate D2E/DX2                !
 --------------------------------------------------------------------------------
 Trust Radius=3.00D-01 FncErr=1.00D-07 GrdErr=1.00D-06 EigMax=2.50D+02 EigMin=1.00D-04
 Number of steps in this run=    164 maximum allowed number of steps=    174.
 GradGradGradGradGradGradGradGradGradGradGradGradGradGradGradGradGradGrad

 Leave Link  103 at Thu Oct  1 18:02:15 2020, MaxMem=  3221225472 cpu:               0.1 elap:               0.0
 (Enter /usr/local/Gaussian/gaussian-16-A03-avx2/g16/l202.exe)
                          Input orientation:                          
 ---------------------------------------------------------------------
 Center     Atomic      Atomic             Coordinates (Angstroms)
 Number     Number       Type             X           Y           Z
 ---------------------------------------------------------------------
      1          6           0       -1.364268   -0.732199    0.000000
      2          1           0       -1.720922    0.276610    0.001956
      3          1           0       -1.720941   -1.234902   -0.874628
      4          6           0       -1.877610   -1.460592    1.255995
      5          1           0       -1.520629   -0.958106    2.130622
      6          1           0       -2.947610   -1.460254    1.256184
      7          1           0       -1.521263   -2.469509    1.253850
      8          6           0        0.689074   -0.006261    1.257405
      9          1           0        0.719442   -0.692341    2.077937
     10          1           0        0.032118    0.804375    1.494420
     11          6           0        2.104236    0.540426    0.992733
     12          1           0        2.062272    1.279925    0.220542
     13          1           0        2.489519    0.981368    1.888292
     14          1           0        2.744178   -0.260176    0.685469
     15          6           0        0.689074   -0.006261   -1.257405
     16          1           0        0.544106    1.047877   -1.144813
     17          1           0        1.731248   -0.211126   -1.387035
     18          6           0       -0.088888   -0.502624   -2.490287
     19          1           0       -1.040836   -0.015769   -2.531121
     20          1           0        0.465762   -0.276352   -3.376890
     21          1           0       -0.232123   -1.560626   -2.419464
     22          6           0        0.689048   -2.184150    0.000000
     23          1           0        0.741741   -2.543821    1.006360
     24          1           0        0.019336   -2.799220   -0.563981
     25          6           0        2.090410   -2.233183   -0.636695
     26          1           0        2.689384   -2.957453   -0.125263
     27          1           0        2.004333   -2.505583   -1.667854
     28          1           0        2.551185   -1.270581   -0.559347
     29          7           0        0.175732   -0.732218    0.000000
 ---------------------------------------------------------------------
                    Distance matrix (angstroms):
                    1          2          3          4          5
     1  C    0.000000
     2  H    1.070000   0.000000
     3  H    1.070000   1.747303   0.000000
     4  C    1.540000   2.148263   2.148263   0.000000
     5  H    2.148263   2.468979   3.024610   1.070000   0.000000
     6  H    2.148263   2.468713   2.468979   1.070000   1.747303
     7  H    2.148263   3.024611   2.468713   1.070000   1.747303
     8  C    2.514809   2.732078   3.444313   2.950076   2.559552
     9  H    2.943001   3.347228   3.868783   2.830279   2.256397
    10  H    2.558172   2.362019   3.583888   2.972202   2.433540
    11  C    3.825651   3.960185   4.612028   4.464132   4.084120
    12  H    3.979756   3.920073   4.672949   4.909711   4.636202
    13  H    4.620999   4.667201   5.502141   5.043291   4.461118
    14  H    4.191897   4.548895   4.829211   4.809097   4.556770
    15  C    2.514809   2.733878   2.732078   3.875580   4.155421
    16  H    2.849764   2.653353   3.227153   4.233320   4.360685
    17  H    3.431851   3.752953   3.637071   4.644419   4.848360
    18  C    2.807281   3.079288   2.410432   4.260500   4.859027
    19  H    2.650368   2.639030   2.166286   4.138834   4.780172
    20  H    3.867840   4.062506   3.458584   5.325170   5.894338
    21  H    2.796757   3.384557   2.170068   4.028229   4.767238
    22  C    2.514810   3.444313   2.733878   2.947675   3.305360
    23  H    2.954659   3.876643   3.363954   2.845470   2.982746
    24  H    2.550492   3.579037   2.360541   2.950023   3.608611
    25  C    3.820096   4.607948   3.947096   4.463670   4.724771
    26  H    4.625964   5.470479   4.793714   5.000589   5.177897
    27  H    4.156213   4.940282   4.015160   4.970954   5.408185
    28  H    3.991679   4.578183   4.283893   4.790177   4.890117
    29  N    1.540000   2.148263   2.148263   2.514809   2.732804
                    6          7          8          9         10
     6  H    0.000000
     7  H    1.747303   0.000000
     8  C    3.916576   3.309560   0.000000
     9  H    3.835653   2.976273   1.070000   0.000000
    10  H    3.750210   3.631691   1.070000   1.747303   0.000000
    11  C    5.439969   4.719335   1.540000   2.148263   2.148263
    12  H    5.803451   5.288450   2.148263   3.023730   2.443448
    13  H    5.993617   5.328925   2.148263   2.443449   2.495052
    14  H    5.844856   4.837168   2.148263   2.495053   3.023730
    15  C    4.653782   4.154465   2.514810   3.405309   2.943003
    16  H    4.924183   4.731948   2.627332   3.666772   2.699440
    17  H    5.517122   4.759558   2.849765   3.641613   3.495865
    18  C    4.808886   4.465299   3.859637   4.643066   4.195328
    19  H    4.479508   4.536260   4.164806   4.979934   4.246039
    20  H    5.875210   5.495631   4.647527   5.476544   5.008560
    21  H    4.571031   3.997648   4.096830   4.678248   4.580561
    22  C    3.915010   2.557155   2.514809   2.558171   3.405309
    23  H    3.853289   2.277709   2.550491   2.139335   3.457193
    24  H    3.729423   2.405548   3.400972   3.450915   4.150069
    25  C    5.437099   4.083404   3.241996   3.409248   4.243227
    26  H    5.993805   4.457531   3.823943   3.723640   4.882191
    27  H    5.845036   4.579027   4.066160   4.355427   4.984520
    28  H    5.793865   4.616270   2.892499   3.262654   3.856048
    29  N    3.444314   2.733151   1.540000   2.148263   2.148263
                   11         12         13         14         15
    11  C    0.000000
    12  H    1.070000   0.000000
    13  H    1.070000   1.747303   0.000000
    14  H    1.070000   1.747303   1.747303   0.000000
    15  C    2.713792   2.392545   3.756650   2.839486   0.000000
    16  H    2.694553   2.054962   3.603996   3.146626   1.070000
    17  H    2.523340   2.217457   3.567181   2.307315   1.070000
    18  C    4.246077   3.892758   5.293616   4.262683   1.540000
    19  H    4.755878   4.345083   5.743596   4.973179   2.148263
    20  H    4.737649   4.232299   5.779238   4.657703   2.148263
    21  H    4.638542   4.505841   5.694368   4.493344   2.148263
    22  C    3.226699   3.732854   4.102176   2.897430   2.514809
    23  H    3.371818   4.120964   4.032306   3.054138   3.400972
    24  H    4.233603   4.629092   5.138900   3.928439   2.954658
    25  C    3.216851   3.616293   4.107090   2.463389   2.703368
    26  H    3.718530   4.297467   4.428167   2.817018   3.740657
    27  H    4.045599   4.230777   5.004039   3.335769   2.853942
    28  H    2.426615   2.711521   3.326562   1.614847   2.356532
    29  N    2.514809   2.767018   3.443201   2.699927   1.540000
                   16         17         18         19         20
    16  H    0.000000
    17  H    1.747303   0.000000
    18  C    2.148263   2.148263   0.000000
    19  H    2.359074   3.005254   1.070000   0.000000
    20  H    2.596514   2.359074   1.070000   1.747303   0.000000
    21  H    3.005254   2.596514   1.070000   1.747303   1.747303
    22  C    3.431851   2.627331   3.103908   3.755123   3.884962
    23  H    4.191288   3.485531   4.133155   4.699191   4.942717
    24  H    3.925927   3.210341   2.999454   3.569482   3.804815
    25  C    3.662594   2.186486   3.343647   4.279074   3.738627
    26  H    4.656648   3.170552   4.397536   5.325054   4.765068
    27  H    3.877230   2.327653   3.011614   4.027091   3.202729
    28  H    3.121920   1.574740   3.359803   4.285448   3.643628
    29  N    2.148263   2.148263   2.514810   2.898260   3.419841
                   21         22         23         24         25
    21  H    0.000000
    22  C    2.662920   0.000000
    23  H    3.694774   1.070000   0.000000
    24  H    2.245031   1.070000   1.747303   0.000000
    25  C    3.004123   1.540000   2.148263   2.148263   0.000000
    26  H    3.968587   2.148263   2.290191   2.710474   1.070000
    27  H    2.541574   2.148263   2.957536   2.290191   1.070000
    28  H    3.360203   2.148263   2.710474   2.957537   1.070000
    29  N    2.589674   1.540000   2.148263   2.148263   2.514810
                   26         27         28         29
    26  H    0.000000
    27  H    1.747303   0.000000
    28  H    1.747303   1.747303   0.000000
    29  N    3.359436   3.044724   2.499096   0.000000
 Stoichiometry    C8H20N(1+)
 Framework group  C1[X(C8H20N)]
 Deg. of freedom    81
 Full point group                 C1      NOp   1
 Largest Abelian subgroup         C1      NOp   1
 Largest concise Abelian subgroup C1      NOp   1
                         Standard orientation:                         
 ---------------------------------------------------------------------
 Center     Atomic      Atomic             Coordinates (Angstroms)
 Number     Number       Type             X           Y           Z
 ---------------------------------------------------------------------
      1          6           0        1.637833    0.401207   -0.379579
      2          1           0        1.850933    0.295894   -1.422842
      3          1           0        1.744458    1.427302   -0.095572
      4          6           0        2.619904   -0.461493    0.434598
      5          1           0        2.513017   -1.487634    0.150858
      6          1           0        3.622001   -0.140363    0.240751
      7          1           0        2.407043   -0.355889    1.477881
      8          6           0        0.041378   -1.537342   -0.512343
      9          1           0        0.365776   -2.166895    0.289735
     10          1           0        0.636992   -1.729855   -1.380147
     11          6           0       -1.436968   -1.830193   -0.829096
     12          1           0       -1.741025   -1.253301   -1.677414
     13          1           0       -1.556053   -2.871468   -1.044653
     14          1           0       -2.040986   -1.569284    0.014698
     15          6           0       -0.786648    0.803190   -0.913031
     16          1           0       -0.740829    0.521864   -1.944368
     17          1           0       -1.780660    0.653589   -0.546345
     18          6           0       -0.404199    2.287924   -0.768465
     19          1           0        0.415210    2.510203   -1.419664
     20          1           0       -1.242828    2.899254   -1.028999
     21          1           0       -0.119253    2.485914    0.243714
     22          6           0       -0.110183    0.087622    1.400975
     23          1           0        0.215161   -0.789733    1.919916
     24          1           0        0.405433    0.942079    1.786906
     25          6           0       -1.626316    0.269529    1.600605
     26          1           0       -1.931601   -0.235154    2.493351
     27          1           0       -1.852399    1.311952    1.685107
     28          1           0       -2.148363   -0.141821    0.762060
     29          7           0        0.195595   -0.061331   -0.100995
 ---------------------------------------------------------------------
 Rotational constants (GHZ):           1.6020714           1.3959938           1.1610930
 Leave Link  202 at Thu Oct  1 18:02:15 2020, MaxMem=  3221225472 cpu:               0.1 elap:               0.0
 (Enter /usr/local/Gaussian/gaussian-16-A03-avx2/g16/l301.exe)
 Standard basis: 6-311+G(d,p) (5D, 7F)
 Ernie: Thresh=  0.10000D-02 Tol=  0.10000D-05 Strict=F.
 There are   327 symmetry adapted cartesian basis functions of A   symmetry.
 There are   318 symmetry adapted basis functions of A   symmetry.
   318 basis functions,   484 primitive gaussians,   327 cartesian basis functions
    37 alpha electrons       37 beta electrons
       nuclear repulsion energy       546.4380732603 Hartrees.
 IExCor=20419 DFT=T Ex+Corr=CAM-B3LYP ExCW=0 ScaHFX=  1.000000
 ScaDFX=  1.000000  1.000000  1.000000  0.810000 ScalE2=  1.000000  1.000000
 IRadAn=      5 IRanWt=     -1 IRanGd=            0 ICorTp=0 IEmpDi=  4
 HFx  wShort=  0.000000 wLong=  0.330000 cFull=  0.190000 cShort=  0.000000 cLong=  0.460000
 DFx  wShort=  0.000000 wLong=  0.330000 cFull=  0.190000 cShort=  0.000000 cLong=  0.460000
 NAtoms=   29 NActive=   29 NUniq=   29 SFac= 1.00D+00 NAtFMM=   60 NAOKFM=F Big=F
 Integral buffers will be    131072 words long.
 Raffenetti 2 integral format.
 Two-electron integral symmetry is turned on.
 Leave Link  301 at Thu Oct  1 18:02:16 2020, MaxMem=  3221225472 cpu:               0.3 elap:               0.1
 (Enter /usr/local/Gaussian/gaussian-16-A03-avx2/g16/linda-exe/l302.exel)
 NPDir=0 NMtPBC=     1 NCelOv=     1 NCel=       1 NClECP=     1 NCelD=      1
         NCelK=      1 NCelE2=     1 NClLst=     1 CellRange=     0.0.
 One-electron integrals computed using PRISM.
 One-electron integral symmetry used in STVInt
 NBasis=   318 RedAO= T EigKep=  1.72D-05  NBF=   318
 NBsUse=   318 1.00D-06 EigRej= -1.00D+00 NBFU=   318
 Precomputing XC quadrature grid using
 IXCGrd= 4 IRadAn=           5 IRanWt=          -1 IRanGd=           0 AccXCQ= 0.00D+00.
 Generated NRdTot=       0 NPtTot=           0 NUsed=           0 NTot=          32
 NSgBfM=   327   327   327   327   327 MxSgAt=    29 MxSgA2=    29.
 Leave Link  302 at Thu Oct  1 18:02:18 2020, MaxMem=  3221225472 cpu:               2.9 elap:               0.5
 (Enter /usr/local/Gaussian/gaussian-16-A03-avx2/g16/l303.exe)
 DipDrv:  MaxL=1.
 Leave Link  303 at Thu Oct  1 18:02:19 2020, MaxMem=  3221225472 cpu:               0.3 elap:               0.1
 (Enter /usr/local/Gaussian/gaussian-16-A03-avx2/g16/linda-exe/l401.exel)
 ExpMin= 4.38D-02 ExpMax= 6.29D+03 ExpMxC= 9.49D+02 IAcc=3 IRadAn=         5 AccDes= 0.00D+00
 Harris functional with IExCor=20419 and IRadAn=       5 diagonalized for initial guess.
 HarFok:  IExCor=20419 AccDes= 0.00D+00 IRadAn=         5 IDoV= 1 UseB2=F ITyADJ=14
 ICtDFT=  3500011 ScaDFX=  1.000000  1.000000  1.000000  1.000000
 FoFCou: FMM=F IPFlag=           0 FMFlag=      100000 FMFlg1=           0
         NFxFlg=           0 DoJE=T BraDBF=F KetDBF=T FulRan=T
         wScrn=  0.000000 ICntrl=       500 IOpCl=  0 I1Cent=   200000004 NGrid=           0
         NMat0=    1 NMatS0=      1 NMatT0=    0 NMatD0=    1 NMtDS0=    0 NMtDT0=    0
 Petite list used in FoFCou.
 Harris En= -355.020109457927    
 JPrj=0 DoOrth=F DoCkMO=F.
 Leave Link  401 at Thu Oct  1 18:02:22 2020, MaxMem=  3221225472 cpu:              11.9 elap:               2.0
 (Enter /usr/local/Gaussian/gaussian-16-A03-avx2/g16/linda-exe/l502.exel)
 Integral symmetry usage will be decided dynamically.
 Closed shell SCF:
 Using DIIS extrapolation, IDIIS=  1040.
 NGot=  3221225472 LenX=  3221006167 LenY=  3220898797
 Requested convergence on RMS density matrix=1.00D-08 within  32 cycles.
 Requested convergence on MAX density matrix=1.00D-06.
 Requested convergence on             energy=1.00D-06.
 No special actions if energy rises.
 Fock matrices will be formed incrementally for  20 cycles.

 Cycle   1  Pass 1  IDiag  1:
 FoFJK:  IHMeth= 1 ICntrl=       0 DoSepK=T KAlg= 0 I1Cent=           0 FoldK=F
 IRaf=         1 NMat=       1 IRICut=       1 DoRegI=T DoRafI=F ISym2E= 0 IDoP0=0 IntGTp=1.
 FoFCou: FMM=F IPFlag=           0 FMFlag=      100000 FMFlg1=           0
         NFxFlg=           0 DoJE=T BraDBF=F KetDBF=F FulRan=T
         wScrn=  0.000000 ICntrl=       500 IOpCl=  0 I1Cent=           0 NGrid=           0
         NMat0=    1 NMatS0=      1 NMatT0=    0 NMatD0=    1 NMtDS0=    0 NMtDT0=    0
 Symmetry not used in FoFCou.
 E= -371.019833510047    
 DIIS: error= 6.81D-02 at cycle   1 NSaved=   1.
 NSaved= 1 IEnMin= 1 EnMin= -371.019833510047     IErMin= 1 ErrMin= 6.81D-02
 ErrMax= 6.81D-02  0.00D+00 EMaxC= 1.00D-01 BMatC= 7.72D-01 BMatP= 7.72D-01
 IDIUse=3 WtCom= 3.19D-01 WtEn= 6.81D-01
 Coeff-Com:  0.100D+01
 Coeff-En:   0.100D+01
 Coeff:      0.100D+01
 Gap=     0.537 Goal=   None    Shift=    0.000
 GapD=    0.537 DampG=2.000 DampE=0.500 DampFc=1.0000 IDamp=-1.
 RMSDP=5.33D-03 MaxDP=2.62D-01              OVMax= 1.29D-01

 Cycle   2  Pass 1  IDiag  1:
 RMSU=  5.29D-03    CP:  1.08D+00
 E= -370.955421793624     Delta-E=        0.064411716423 Rises=F Damp=F
 DIIS: error= 4.62D-02 at cycle   2 NSaved=   2.
 NSaved= 2 IEnMin= 1 EnMin= -371.019833510047     IErMin= 2 ErrMin= 4.62D-02
 ErrMax= 4.62D-02  0.00D+00 EMaxC= 1.00D-01 BMatC= 4.02D-01 BMatP= 7.72D-01
 IDIUse=3 WtCom= 5.38D-01 WtEn= 4.62D-01
 Coeff-Com:  0.395D+00 0.605D+00
 Coeff-En:   0.562D+00 0.438D+00
 Coeff:      0.472D+00 0.528D+00
 Gap=     0.530 Goal=   None    Shift=    0.000
 RMSDP=3.89D-03 MaxDP=2.40D-01 DE= 6.44D-02 OVMax= 1.10D-01

 Cycle   3  Pass 1  IDiag  1:
 RMSU=  1.42D-03    CP:  9.90D-01  3.32D-01
 E= -371.233410093653     Delta-E=       -0.277988300028 Rises=F Damp=F
 DIIS: error= 1.13D-02 at cycle   3 NSaved=   3.
 NSaved= 3 IEnMin= 3 EnMin= -371.233410093653     IErMin= 3 ErrMin= 1.13D-02
 ErrMax= 1.13D-02  0.00D+00 EMaxC= 1.00D-01 BMatC= 2.76D-02 BMatP= 4.02D-01
 IDIUse=3 WtCom= 8.87D-01 WtEn= 1.13D-01
 Coeff-Com:  0.280D-01 0.209D+00 0.763D+00
 Coeff-En:   0.000D+00 0.000D+00 0.100D+01
 Coeff:      0.249D-01 0.186D+00 0.789D+00
 Gap=     0.469 Goal=   None    Shift=    0.000
 RMSDP=8.80D-04 MaxDP=4.08D-02 DE=-2.78D-01 OVMax= 3.11D-02

 Cycle   4  Pass 1  IDiag  1:
 RMSU=  3.46D-04    CP:  1.01D+00  4.80D-01  9.12D-01
 E= -371.252898226800     Delta-E=       -0.019488133147 Rises=F Damp=F
 DIIS: error= 3.27D-03 at cycle   4 NSaved=   4.
 NSaved= 4 IEnMin= 4 EnMin= -371.252898226800     IErMin= 4 ErrMin= 3.27D-03
 ErrMax= 3.27D-03  0.00D+00 EMaxC= 1.00D-01 BMatC= 2.80D-03 BMatP= 2.76D-02
 IDIUse=3 WtCom= 9.67D-01 WtEn= 3.27D-02
 Coeff-Com:  0.841D-02 0.633D-01 0.363D+00 0.565D+00
 Coeff-En:   0.000D+00 0.000D+00 0.211D-01 0.979D+00
 Coeff:      0.813D-02 0.612D-01 0.352D+00 0.579D+00
 Gap=     0.458 Goal=   None    Shift=    0.000
 RMSDP=2.19D-04 MaxDP=1.07D-02 DE=-1.95D-02 OVMax= 6.82D-03

 Cycle   5  Pass 1  IDiag  1:
 RMSU=  7.79D-05    CP:  1.00D+00  4.51D-01  9.69D-01  7.35D-01
 E= -371.255117821145     Delta-E=       -0.002219594345 Rises=F Damp=F
 DIIS: error= 2.20D-04 at cycle   5 NSaved=   5.
 NSaved= 5 IEnMin= 5 EnMin= -371.255117821145     IErMin= 5 ErrMin= 2.20D-04
 ErrMax= 2.20D-04  0.00D+00 EMaxC= 1.00D-01 BMatC= 2.56D-05 BMatP= 2.80D-03
 IDIUse=3 WtCom= 9.98D-01 WtEn= 2.20D-03
 Coeff-Com: -0.688D-03-0.822D-02-0.921D-04 0.102D+00 0.907D+00
 Coeff-En:   0.000D+00 0.000D+00 0.000D+00 0.000D+00 0.100D+01
 Coeff:     -0.687D-03-0.820D-02-0.919D-04 0.101D+00 0.908D+00
 Gap=     0.458 Goal=   None    Shift=    0.000
 RMSDP=3.35D-05 MaxDP=8.86D-04 DE=-2.22D-03 OVMax= 7.90D-04

 Cycle   6  Pass 1  IDiag  1:
 RMSU=  2.00D-05    CP:  1.00D+00  4.51D-01  9.81D-01  7.96D-01  1.02D+00
 E= -371.255141906402     Delta-E=       -0.000024085258 Rises=F Damp=F
 DIIS: error= 4.00D-05 at cycle   6 NSaved=   6.
 NSaved= 6 IEnMin= 6 EnMin= -371.255141906402     IErMin= 6 ErrMin= 4.00D-05
 ErrMax= 4.00D-05  0.00D+00 EMaxC= 1.00D-01 BMatC= 1.10D-06 BMatP= 2.56D-05
 IDIUse=1 WtCom= 1.00D+00 WtEn= 0.00D+00
 Coeff-Com: -0.461D-03-0.415D-02-0.638D-02 0.264D-01 0.312D+00 0.672D+00
 Coeff:     -0.461D-03-0.415D-02-0.638D-02 0.264D-01 0.312D+00 0.672D+00
 Gap=     0.458 Goal=   None    Shift=    0.000
 RMSDP=7.55D-06 MaxDP=2.59D-04 DE=-2.41D-05 OVMax= 1.96D-04

 Cycle   7  Pass 1  IDiag  1:
 RMSU=  5.40D-06    CP:  1.00D+00  4.51D-01  9.82D-01  8.03D-01  1.06D+00
                    CP:  9.86D-01
 E= -371.255142910126     Delta-E=       -0.000001003724 Rises=F Damp=F
 DIIS: error= 1.35D-05 at cycle   7 NSaved=   7.
 NSaved= 7 IEnMin= 7 EnMin= -371.255142910126     IErMin= 7 ErrMin= 1.35D-05
 ErrMax= 1.35D-05  0.00D+00 EMaxC= 1.00D-01 BMatC= 7.79D-08 BMatP= 1.10D-06
 IDIUse=1 WtCom= 1.00D+00 WtEn= 0.00D+00
 Coeff-Com: -0.517D-04-0.344D-03-0.203D-02-0.363D-02-0.138D-01 0.187D+00
 Coeff-Com:  0.833D+00
 Coeff:     -0.517D-04-0.344D-03-0.203D-02-0.363D-02-0.138D-01 0.187D+00
 Coeff:      0.833D+00
 Gap=     0.458 Goal=   None    Shift=    0.000
 RMSDP=2.69D-06 MaxDP=7.44D-05 DE=-1.00D-06 OVMax= 5.80D-05

 Cycle   8  Pass 1  IDiag  1:
 RMSU=  1.29D-06    CP:  1.00D+00  4.51D-01  9.83D-01  8.06D-01  1.07D+00
                    CP:  1.04D+00  9.92D-01
 E= -371.255143000936     Delta-E=       -0.000000090810 Rises=F Damp=F
 DIIS: error= 2.18D-06 at cycle   8 NSaved=   8.
 NSaved= 8 IEnMin= 8 EnMin= -371.255143000936     IErMin= 8 ErrMin= 2.18D-06
 ErrMax= 2.18D-06  0.00D+00 EMaxC= 1.00D-01 BMatC= 2.75D-09 BMatP= 7.79D-08
 IDIUse=1 WtCom= 1.00D+00 WtEn= 0.00D+00
 Coeff-Com:  0.910D-05 0.105D-03-0.222D-03-0.212D-02-0.185D-01 0.689D-02
 Coeff-Com:  0.189D+00 0.825D+00
 Coeff:      0.910D-05 0.105D-03-0.222D-03-0.212D-02-0.185D-01 0.689D-02
 Coeff:      0.189D+00 0.825D+00
 Gap=     0.458 Goal=   None    Shift=    0.000
 RMSDP=6.74D-07 MaxDP=3.42D-05 DE=-9.08D-08 OVMax= 1.15D-05

 Cycle   9  Pass 1  IDiag  1:
 RMSU=  3.26D-07    CP:  1.00D+00  4.51D-01  9.83D-01  8.07D-01  1.07D+00
                    CP:  1.06D+00  1.04D+00  1.02D+00
 E= -371.255143004152     Delta-E=       -0.000000003216 Rises=F Damp=F
 DIIS: error= 5.44D-07 at cycle   9 NSaved=   9.
 NSaved= 9 IEnMin= 9 EnMin= -371.255143004152     IErMin= 9 ErrMin= 5.44D-07
 ErrMax= 5.44D-07  0.00D+00 EMaxC= 1.00D-01 BMatC= 1.35D-10 BMatP= 2.75D-09
 IDIUse=1 WtCom= 1.00D+00 WtEn= 0.00D+00
 Coeff-Com:  0.389D-05 0.372D-04 0.440D-04-0.312D-03-0.361D-02-0.608D-02
 Coeff-Com:  0.715D-02 0.187D+00 0.815D+00
 Coeff:      0.389D-05 0.372D-04 0.440D-04-0.312D-03-0.361D-02-0.608D-02
 Coeff:      0.715D-02 0.187D+00 0.815D+00
 Gap=     0.458 Goal=   None    Shift=    0.000
 RMSDP=1.28D-07 MaxDP=6.01D-06 DE=-3.22D-09 OVMax= 2.92D-06

 Cycle  10  Pass 1  IDiag  1:
 RMSU=  6.51D-08    CP:  1.00D+00  4.51D-01  9.83D-01  8.07D-01  1.07D+00
                    CP:  1.06D+00  1.05D+00  1.07D+00  1.05D+00
 E= -371.255143004292     Delta-E=       -0.000000000140 Rises=F Damp=F
 DIIS: error= 1.86D-07 at cycle  10 NSaved=  10.
 NSaved=10 IEnMin=10 EnMin= -371.255143004292     IErMin=10 ErrMin= 1.86D-07
 ErrMax= 1.86D-07  0.00D+00 EMaxC= 1.00D-01 BMatC= 1.84D-11 BMatP= 1.35D-10
 IDIUse=1 WtCom= 1.00D+00 WtEn= 0.00D+00
 Coeff-Com:  0.724D-06 0.350D-05 0.382D-04 0.879D-04 0.394D-03-0.241D-02
 Coeff-Com: -0.136D-01-0.466D-02 0.277D+00 0.743D+00
 Coeff:      0.724D-06 0.350D-05 0.382D-04 0.879D-04 0.394D-03-0.241D-02
 Coeff:     -0.136D-01-0.466D-02 0.277D+00 0.743D+00
 Gap=     0.458 Goal=   None    Shift=    0.000
 RMSDP=4.48D-08 MaxDP=1.87D-06 DE=-1.40D-10 OVMax= 7.60D-07

 Cycle  11  Pass 1  IDiag  1:
 RMSU=  1.87D-08    CP:  1.00D+00  4.51D-01  9.83D-01  8.07D-01  1.07D+00
                    CP:  1.06D+00  1.05D+00  1.09D+00  1.09D+00  9.39D-01
 E= -371.255143004312     Delta-E=       -0.000000000021 Rises=F Damp=F
 DIIS: error= 4.73D-08 at cycle  11 NSaved=  11.
 NSaved=11 IEnMin=11 EnMin= -371.255143004312     IErMin=11 ErrMin= 4.73D-08
 ErrMax= 4.73D-08  0.00D+00 EMaxC= 1.00D-01 BMatC= 1.26D-12 BMatP= 1.84D-11
 IDIUse=1 WtCom= 1.00D+00 WtEn= 0.00D+00
 Coeff-Com: -0.659D-08-0.104D-05 0.103D-04 0.496D-04 0.346D-03-0.426D-03
 Coeff-Com: -0.511D-02-0.144D-01 0.383D-01 0.258D+00 0.723D+00
 Coeff:     -0.659D-08-0.104D-05 0.103D-04 0.496D-04 0.346D-03-0.426D-03
 Coeff:     -0.511D-02-0.144D-01 0.383D-01 0.258D+00 0.723D+00
 Gap=     0.458 Goal=   None    Shift=    0.000
 RMSDP=9.13D-09 MaxDP=2.58D-07 DE=-2.07D-11 OVMax= 2.03D-07

 SCF Done:  E(RCAM-B3LYP) =  -371.255143004     A.U. after   11 cycles
            NFock= 11  Conv=0.91D-08     -V/T= 2.0030
 KE= 3.701290878574D+02 PE=-1.939595523327D+03 EE= 6.517732192054D+02
 Leave Link  502 at Thu Oct  1 18:03:25 2020, MaxMem=  3221225472 cpu:             367.7 elap:              61.6
 (Enter /usr/local/Gaussian/gaussian-16-A03-avx2/g16/linda-exe/l508.exel)
 QCSCF skips out because SCF is already converged.
 Leave Link  508 at Thu Oct  1 18:03:26 2020, MaxMem=  3221225472 cpu:               0.0 elap:               0.0
 (Enter /usr/local/Gaussian/gaussian-16-A03-avx2/g16/l601.exe)
 Copying SCF densities to generalized density rwf, IOpCl= 0 IROHF=0.

 **********************************************************************

            Population analysis using the SCF density.

 **********************************************************************

 Orbital symmetries:
       Occupied  (A) (A) (A) (A) (A) (A) (A) (A) (A) (A) (A) (A)
                 (A) (A) (A) (A) (A) (A) (A) (A) (A) (A) (A) (A)
                 (A) (A) (A) (A) (A) (A) (A) (A) (A) (A) (A) (A)
                 (A)
       Virtual   (A) (A) (A) (A) (A) (A) (A) (A) (A) (A) (A) (A)
                 (A) (A) (A) (A) (A) (A) (A) (A) (A) (A) (A) (A)
                 (A) (A) (A) (A) (A) (A) (A) (A) (A) (A) (A) (A)
                 (A) (A) (A) (A) (A) (A) (A) (A) (A) (A) (A) (A)
                 (A) (A) (A) (A) (A) (A) (A) (A) (A) (A) (A) (A)
                 (A) (A) (A) (A) (A) (A) (A) (A) (A) (A) (A) (A)
                 (A) (A) (A) (A) (A) (A) (A) (A) (A) (A) (A) (A)
                 (A) (A) (A) (A) (A) (A) (A) (A) (A) (A) (A) (A)
                 (A) (A) (A) (A) (A) (A) (A) (A) (A) (A) (A) (A)
                 (A) (A) (A) (A) (A) (A) (A) (A) (A) (A) (A) (A)
                 (A) (A) (A) (A) (A) (A) (A) (A) (A) (A) (A) (A)
                 (A) (A) (A) (A) (A) (A) (A) (A) (A) (A) (A) (A)
                 (A) (A) (A) (A) (A) (A) (A) (A) (A) (A) (A) (A)
                 (A) (A) (A) (A) (A) (A) (A) (A) (A) (A) (A) (A)
                 (A) (A) (A) (A) (A) (A) (A) (A) (A) (A) (A) (A)
                 (A) (A) (A) (A) (A) (A) (A) (A) (A) (A) (A) (A)
                 (A) (A) (A) (A) (A) (A) (A) (A) (A) (A) (A) (A)
                 (A) (A) (A) (A) (A) (A) (A) (A) (A) (A) (A) (A)
                 (A) (A) (A) (A) (A) (A) (A) (A) (A) (A) (A) (A)
                 (A) (A) (A) (A) (A) (A) (A) (A) (A) (A) (A) (A)
                 (A) (A) (A) (A) (A) (A) (A) (A) (A) (A) (A) (A)
                 (A) (A) (A) (A) (A) (A) (A) (A) (A) (A) (A) (A)
                 (A) (A) (A) (A) (A) (A) (A) (A) (A) (A) (A) (A)
                 (A) (A) (A) (A) (A)
 The electronic state is 1-A.
 Alpha  occ. eigenvalues --  -14.66609 -10.45255 -10.45157 -10.44923 -10.44687
 Alpha  occ. eigenvalues --  -10.38496 -10.38472 -10.38400 -10.38323  -1.24373
 Alpha  occ. eigenvalues --   -1.03185  -1.02731  -1.02063  -0.97076  -0.90144
 Alpha  occ. eigenvalues --   -0.88318  -0.87928  -0.81395  -0.75829  -0.75417
 Alpha  occ. eigenvalues --   -0.73515  -0.70865  -0.69355  -0.66509  -0.66344
 Alpha  occ. eigenvalues --   -0.64717  -0.62514  -0.61298  -0.61042  -0.60339
 Alpha  occ. eigenvalues --   -0.59807  -0.59401  -0.58538  -0.57979  -0.57665
 Alpha  occ. eigenvalues --   -0.57063  -0.55750
 Alpha virt. eigenvalues --   -0.09948  -0.08720  -0.08217  -0.08176  -0.06348
 Alpha virt. eigenvalues --   -0.05973  -0.05542  -0.04953  -0.04809  -0.04192
 Alpha virt. eigenvalues --   -0.02808  -0.01905  -0.01667  -0.01507  -0.01316
 Alpha virt. eigenvalues --   -0.01114  -0.00290   0.00775   0.01054   0.01690
 Alpha virt. eigenvalues --    0.02107   0.02558   0.03188   0.03523   0.03686
 Alpha virt. eigenvalues --    0.03846   0.04895   0.04945   0.05381   0.06488
 Alpha virt. eigenvalues --    0.06726   0.07418   0.08014   0.08496   0.09195
 Alpha virt. eigenvalues --    0.09955   0.10052   0.10451   0.11462   0.11728
 Alpha virt. eigenvalues --    0.12360   0.13086   0.13424   0.14202   0.14261
 Alpha virt. eigenvalues --    0.14505   0.15045   0.15326   0.16113   0.16559
 Alpha virt. eigenvalues --    0.16825   0.17552   0.18540   0.18664   0.19597
 Alpha virt. eigenvalues --    0.20183   0.20427   0.21932   0.22858   0.24967
 Alpha virt. eigenvalues --    0.25095   0.26218   0.28911   0.30440   0.30674
 Alpha virt. eigenvalues --    0.31850   0.32305   0.34077   0.34967   0.36056
 Alpha virt. eigenvalues --    0.37783   0.39343   0.39774   0.41787   0.42868
 Alpha virt. eigenvalues --    0.43868   0.44398   0.45221   0.46776   0.47430
 Alpha virt. eigenvalues --    0.48856   0.50300   0.51916   0.53058   0.54051
 Alpha virt. eigenvalues --    0.56029   0.56797   0.57248   0.57969   0.58674
 Alpha virt. eigenvalues --    0.59623   0.60088   0.60447   0.60958   0.61460
 Alpha virt. eigenvalues --    0.62522   0.62902   0.63498   0.63771   0.64497
 Alpha virt. eigenvalues --    0.65159   0.65760   0.67255   0.67387   0.68655
 Alpha virt. eigenvalues --    0.69611   0.70317   0.70965   0.73387   0.74998
 Alpha virt. eigenvalues --    0.75200   0.80144   0.82496   0.86143   0.88776
 Alpha virt. eigenvalues --    0.89893   0.92716   0.96250   1.00548   1.02584
 Alpha virt. eigenvalues --    1.03625   1.07225   1.09698   1.12927   1.17714
 Alpha virt. eigenvalues --    1.18810   1.22293   1.23022   1.24801   1.26822
 Alpha virt. eigenvalues --    1.28190   1.31973   1.33034   1.35514   1.38771
 Alpha virt. eigenvalues --    1.38922   1.39872   1.40775   1.42469   1.42581
 Alpha virt. eigenvalues --    1.44524   1.44945   1.46046   1.46384   1.47208
 Alpha virt. eigenvalues --    1.47752   1.48257   1.49249   1.50442   1.52831
 Alpha virt. eigenvalues --    1.53782   1.55089   1.55918   1.56821   1.58069
 Alpha virt. eigenvalues --    1.58903   1.59543   1.60719   1.61735   1.62261
 Alpha virt. eigenvalues --    1.64015   1.65725   1.66938   1.68888   1.69957
 Alpha virt. eigenvalues --    1.70780   1.70906   1.71866   1.76249   1.77920
 Alpha virt. eigenvalues --    1.78534   1.78936   1.82418   1.82744   1.84270
 Alpha virt. eigenvalues --    1.85778   1.87158   1.92818   1.94575   1.96714
 Alpha virt. eigenvalues --    1.98503   1.99826   2.00986   2.04166   2.05313
 Alpha virt. eigenvalues --    2.06201   2.08334   2.10288   2.11120   2.13193
 Alpha virt. eigenvalues --    2.16583   2.18572   2.19582   2.21212   2.24631
 Alpha virt. eigenvalues --    2.28414   2.29257   2.30836   2.33781   2.36654
 Alpha virt. eigenvalues --    2.37765   2.38694   2.40006   2.41155   2.42381
 Alpha virt. eigenvalues --    2.44220   2.44590   2.45421   2.46493   2.47673
 Alpha virt. eigenvalues --    2.48841   2.50447   2.51066   2.51544   2.51936
 Alpha virt. eigenvalues --    2.53162   2.53928   2.54614   2.55679   2.58027
 Alpha virt. eigenvalues --    2.58595   2.59466   2.59981   2.61678   2.62835
 Alpha virt. eigenvalues --    2.63993   2.64768   2.66085   2.66642   2.68600
 Alpha virt. eigenvalues --    2.71455   2.73627   2.74897   2.76606   2.77715
 Alpha virt. eigenvalues --    2.83014   2.84317   2.87188   2.87893   2.90116
 Alpha virt. eigenvalues --    2.95316   2.97278   2.98965   3.02668   3.09723
 Alpha virt. eigenvalues --    3.12519   3.14700   3.20289   3.24489   3.46827
 Alpha virt. eigenvalues --    3.49197   3.50900   3.55842   3.64328   3.71143
 Alpha virt. eigenvalues --    3.75877   3.77009   3.79234   3.79867   3.80211
 Alpha virt. eigenvalues --    3.80996   3.81794   3.84159   3.89617   3.95442
 Alpha virt. eigenvalues --    4.10972   4.11349   4.12011   4.14128   4.59376
 Alpha virt. eigenvalues --    4.60207   4.60558  23.77868  23.79887  23.82054
 Alpha virt. eigenvalues --   23.83353  23.96054  23.96863  23.97104  23.99681
 Alpha virt. eigenvalues --   35.36249
          Condensed to atoms (all electrons):
               1          2          3          4          5          6
     1  C    5.529055   0.416598   0.417577   0.155923  -0.032115  -0.045849
     2  H    0.416598   0.437825  -0.023062  -0.022169  -0.005857  -0.004788
     3  H    0.417577  -0.023062   0.448753  -0.025876   0.004101  -0.005391
     4  C    0.155923  -0.022169  -0.025876   5.255238   0.418711   0.422713
     5  H   -0.032115  -0.005857   0.004101   0.418711   0.493493  -0.018112
     6  H   -0.045849  -0.004788  -0.005391   0.422713  -0.018112   0.451286
     7  H   -0.014030   0.004459  -0.005366   0.406033  -0.026277  -0.018144
     8  C   -0.162850  -0.018504   0.014225   0.004348   0.013858   0.001830
     9  H   -0.026976  -0.000145  -0.000533   0.015171  -0.005140  -0.000002
    10  H    0.010345   0.001059   0.000487  -0.008066   0.000085  -0.000236
    11  C    0.112215  -0.004908  -0.002059  -0.036514   0.002160   0.000063
    12  H   -0.001642   0.000135  -0.000058   0.001544  -0.000042  -0.000001
    13  H   -0.000537  -0.000047   0.000007   0.000930   0.000023  -0.000001
    14  H   -0.000601   0.000071   0.000074   0.000112   0.000060  -0.000000
    15  C   -0.103129  -0.008753  -0.032997   0.041496   0.001988   0.000229
    16  H   -0.011509   0.000482  -0.000058  -0.004002   0.000071  -0.000020
    17  H    0.015116  -0.000275  -0.000041  -0.001331   0.000007   0.000007
    18  C   -0.104585   0.006102   0.014001   0.002473  -0.002663   0.001109
    19  H    0.011599   0.000174  -0.001470   0.001066  -0.000009   0.000023
    20  H    0.003171  -0.000208   0.001135   0.000717   0.000003  -0.000001
    21  H   -0.025631  -0.000381  -0.004355  -0.008755   0.000011   0.000001
    22  C   -0.181797   0.016965  -0.027981   0.005830  -0.017372   0.003063
    23  H   -0.023361  -0.000328  -0.000277   0.012400  -0.001088  -0.000015
    24  H    0.016706   0.000274   0.000176   0.004182  -0.000120  -0.000252
    25  C    0.105501  -0.001191   0.001345  -0.031696  -0.002481   0.000113
    26  H   -0.000463   0.000004  -0.000047  -0.000020   0.000003  -0.000001
    27  H   -0.006116   0.000009   0.000130   0.000195   0.000004  -0.000001
    28  H    0.005257   0.000036   0.000146   0.002504  -0.000025   0.000001
    29  N    0.081653  -0.012103   0.006335  -0.135360   0.003594   0.016999
               7          8          9         10         11         12
     1  C   -0.014030  -0.162850  -0.026976   0.010345   0.112215  -0.001642
     2  H    0.004459  -0.018504  -0.000145   0.001059  -0.004908   0.000135
     3  H   -0.005366   0.014225  -0.000533   0.000487  -0.002059  -0.000058
     4  C    0.406033   0.004348   0.015171  -0.008066  -0.036514   0.001544
     5  H   -0.026277   0.013858  -0.005140   0.000085   0.002160  -0.000042
     6  H   -0.018144   0.001830  -0.000002  -0.000236   0.000063  -0.000001
     7  H    0.499187  -0.015789  -0.000990  -0.000091  -0.000762   0.000004
     8  C   -0.015789   5.698388   0.467668   0.364380  -0.086427   0.047252
     9  H   -0.000990   0.467668   0.460550  -0.025358  -0.072541   0.005431
    10  H   -0.000091   0.364380  -0.025358   0.452397   0.001946  -0.006995
    11  C   -0.000762  -0.086427  -0.072541   0.001946   5.563167   0.342177
    12  H    0.000004   0.047252   0.005431  -0.006995   0.342177   0.516618
    13  H   -0.000008  -0.031850  -0.004122  -0.003791   0.411176  -0.016439
    14  H   -0.000002  -0.057758  -0.006433   0.004387   0.429546  -0.024173
    15  C   -0.002737  -0.133070   0.016267  -0.000403   0.025163   0.006219
    16  H    0.000045   0.014932   0.000242  -0.000378  -0.021827   0.002768
    17  H    0.000011  -0.029651  -0.000386  -0.001133   0.037987  -0.004322
    18  C    0.000331   0.137109   0.003974  -0.004419  -0.127412   0.013373
    19  H    0.000050  -0.010193  -0.000010   0.000025   0.004703  -0.000081
    20  H   -0.000002   0.001755   0.000003  -0.000031   0.000156   0.000059
    21  H    0.000058   0.002329   0.000043   0.000031   0.001232  -0.000004
    22  C    0.006777  -0.262920  -0.014293   0.019768   0.032321  -0.011541
    23  H   -0.004027  -0.020340   0.000571   0.000458   0.005307  -0.000039
    24  H    0.000621   0.014761   0.000515  -0.000331  -0.005680   0.000066
    25  C    0.005099   0.064651   0.000036  -0.007101  -0.039941   0.003708
    26  H    0.000028   0.008699   0.000239   0.000017  -0.007150   0.000052
    27  H   -0.000001  -0.005214  -0.000114   0.000050  -0.000649  -0.000122
    28  H    0.000017  -0.040049  -0.000110  -0.000224   0.018347  -0.001933
    29  N   -0.003872   0.135411  -0.030901  -0.011686  -0.056604  -0.042576
              13         14         15         16         17         18
     1  C   -0.000537  -0.000601  -0.103129  -0.011509   0.015116  -0.104585
     2  H   -0.000047   0.000071  -0.008753   0.000482  -0.000275   0.006102
     3  H    0.000007   0.000074  -0.032997  -0.000058  -0.000041   0.014001
     4  C    0.000930   0.000112   0.041496  -0.004002  -0.001331   0.002473
     5  H    0.000023   0.000060   0.001988   0.000071   0.000007  -0.002663
     6  H   -0.000001  -0.000000   0.000229  -0.000020   0.000007   0.001109
     7  H   -0.000008  -0.000002  -0.002737   0.000045   0.000011   0.000331
     8  C   -0.031850  -0.057758  -0.133070   0.014932  -0.029651   0.137109
     9  H   -0.004122  -0.006433   0.016267   0.000242  -0.000386   0.003974
    10  H   -0.003791   0.004387  -0.000403  -0.000378  -0.001133  -0.004419
    11  C    0.411176   0.429546   0.025163  -0.021827   0.037987  -0.127412
    12  H   -0.016439  -0.024173   0.006219   0.002768  -0.004322   0.013373
    13  H    0.447274  -0.014742   0.003717   0.000008   0.000611   0.001780
    14  H   -0.014742   0.486814  -0.022015  -0.000209  -0.010489  -0.000647
    15  C    0.003717  -0.022015   5.608969   0.396230   0.453614   0.035769
    16  H    0.000008  -0.000209   0.396230   0.439596  -0.023340  -0.000194
    17  H    0.000611  -0.010489   0.453614  -0.023340   0.475525  -0.065385
    18  C    0.001780  -0.000647   0.035769  -0.000194  -0.065385   5.502413
    19  H   -0.000001  -0.000038   0.049810  -0.009356   0.004648   0.355078
    20  H   -0.000002  -0.000004  -0.022392  -0.000471  -0.005837   0.400186
    21  H   -0.000001  -0.000020  -0.075022   0.003909  -0.005579   0.448543
    22  C    0.003968  -0.015494   0.084068   0.002669  -0.007761  -0.065045
    23  H   -0.000070   0.000050   0.024621  -0.000097  -0.000419  -0.001775
    24  H    0.000023  -0.000138  -0.023570  -0.000197  -0.000036  -0.002522
    25  C   -0.002136  -0.010196  -0.129540   0.007826  -0.010647  -0.002812
    26  H    0.000044  -0.000240   0.002247  -0.000044   0.001629   0.001191
    27  H   -0.000024   0.001224   0.030022  -0.000023  -0.006468  -0.004151
    28  H    0.000763   0.001098  -0.061814  -0.000486   0.002076   0.002875
    29  N    0.005888   0.057488  -0.004568  -0.008260  -0.032773  -0.011950
              19         20         21         22         23         24
     1  C    0.011599   0.003171  -0.025631  -0.181797  -0.023361   0.016706
     2  H    0.000174  -0.000208  -0.000381   0.016965  -0.000328   0.000274
     3  H   -0.001470   0.001135  -0.004355  -0.027981  -0.000277   0.000176
     4  C    0.001066   0.000717  -0.008755   0.005830   0.012400   0.004182
     5  H   -0.000009   0.000003   0.000011  -0.017372  -0.001088  -0.000120
     6  H    0.000023  -0.000001   0.000001   0.003063  -0.000015  -0.000252
     7  H    0.000050  -0.000002   0.000058   0.006777  -0.004027   0.000621
     8  C   -0.010193   0.001755   0.002329  -0.262920  -0.020340   0.014761
     9  H   -0.000010   0.000003   0.000043  -0.014293   0.000571   0.000515
    10  H    0.000025  -0.000031   0.000031   0.019768   0.000458  -0.000331
    11  C    0.004703   0.000156   0.001232   0.032321   0.005307  -0.005680
    12  H   -0.000081   0.000059  -0.000004  -0.011541  -0.000039   0.000066
    13  H   -0.000001  -0.000002  -0.000001   0.003968  -0.000070   0.000023
    14  H   -0.000038  -0.000004  -0.000020  -0.015494   0.000050  -0.000138
    15  C    0.049810  -0.022392  -0.075022   0.084068   0.024621  -0.023570
    16  H   -0.009356  -0.000471   0.003909   0.002669  -0.000097  -0.000197
    17  H    0.004648  -0.005837  -0.005579  -0.007761  -0.000419  -0.000036
    18  C    0.355078   0.400186   0.448543  -0.065045  -0.001775  -0.002522
    19  H    0.502811  -0.014161  -0.030669   0.006693  -0.000017  -0.000040
    20  H   -0.014161   0.451479  -0.015708  -0.000619   0.000014   0.000228
    21  H   -0.030669  -0.015708   0.475654   0.003465   0.000169  -0.006835
    22  C    0.006693  -0.000619   0.003465   5.544288   0.475282   0.370457
    23  H   -0.000017   0.000014   0.000169   0.475282   0.440275  -0.025482
    24  H   -0.000040   0.000228  -0.006835   0.370457  -0.025482   0.446213
    25  C   -0.003473   0.001038  -0.006034   0.058626  -0.066642  -0.007098
    26  H    0.000013  -0.000026  -0.000248  -0.024238  -0.008082  -0.000677
    27  H    0.000077   0.000117  -0.001768   0.012025   0.003563  -0.014075
    28  H   -0.000136   0.000392   0.000138  -0.049805  -0.000948   0.005639
    29  N   -0.044793   0.001647   0.063139   0.224816  -0.032051  -0.004634
              25         26         27         28         29
     1  C    0.105501  -0.000463  -0.006116   0.005257   0.081653
     2  H   -0.001191   0.000004   0.000009   0.000036  -0.012103
     3  H    0.001345  -0.000047   0.000130   0.000146   0.006335
     4  C   -0.031696  -0.000020   0.000195   0.002504  -0.135360
     5  H   -0.002481   0.000003   0.000004  -0.000025   0.003594
     6  H    0.000113  -0.000001  -0.000001   0.000001   0.016999
     7  H    0.005099   0.000028  -0.000001   0.000017  -0.003872
     8  C    0.064651   0.008699  -0.005214  -0.040049   0.135411
     9  H    0.000036   0.000239  -0.000114  -0.000110  -0.030901
    10  H   -0.007101   0.000017   0.000050  -0.000224  -0.011686
    11  C   -0.039941  -0.007150  -0.000649   0.018347  -0.056604
    12  H    0.003708   0.000052  -0.000122  -0.001933  -0.042576
    13  H   -0.002136   0.000044  -0.000024   0.000763   0.005888
    14  H   -0.010196  -0.000240   0.001224   0.001098   0.057488
    15  C   -0.129540   0.002247   0.030022  -0.061814  -0.004568
    16  H    0.007826  -0.000044  -0.000023  -0.000486  -0.008260
    17  H   -0.010647   0.001629  -0.006468   0.002076  -0.032773
    18  C   -0.002812   0.001191  -0.004151   0.002875  -0.011950
    19  H   -0.003473   0.000013   0.000077  -0.000136  -0.044793
    20  H    0.001038  -0.000026   0.000117   0.000392   0.001647
    21  H   -0.006034  -0.000248  -0.001768   0.000138   0.063139
    22  C    0.058626  -0.024238   0.012025  -0.049805   0.224816
    23  H   -0.066642  -0.008082   0.003563  -0.000948  -0.032051
    24  H   -0.007098  -0.000677  -0.014075   0.005639  -0.004634
    25  C    5.443967   0.415204   0.391739   0.399864  -0.123706
    26  H    0.415204   0.444331  -0.015792  -0.015886  -0.001337
    27  H    0.391739  -0.015792   0.468727  -0.027573  -0.020070
    28  H    0.399864  -0.015886  -0.027573   0.560293   0.077461
    29  N   -0.123706  -0.001337  -0.020070   0.077461   7.218704
 Mulliken charges:
               1
     1  C   -0.139524
     2  H    0.218525
     3  H    0.221082
     4  C   -0.477797
     5  H    0.173128
     6  H    0.195380
     7  H    0.169381
     8  C   -0.116982
     9  H    0.217348
    10  H    0.214809
    11  C   -0.525193
    12  H    0.170562
    13  H    0.197558
    14  H    0.182276
    15  C   -0.160418
    16  H    0.211692
    17  H    0.214640
    18  C   -0.532747
    19  H    0.177678
    20  H    0.197362
    21  H    0.182288
    22  C   -0.192215
    23  H    0.222349
    24  H    0.231823
    25  C   -0.454026
    26  H    0.200551
    27  H    0.194279
    28  H    0.122084
    29  N   -0.315893
 Sum of Mulliken charges =   1.00000
 Mulliken charges with hydrogens summed into heavy atoms:
               1
     1  C    0.300082
     4  C    0.060092
     8  C    0.315176
    11  C    0.025204
    15  C    0.265913
    18  C    0.024580
    22  C    0.261957
    25  C    0.062889
    29  N   -0.315893
 Electronic spatial extent (au):  <R**2>=           1355.1446
 Charge=              1.0000 electrons
 Dipole moment (field-independent basis, Debye):
    X=              0.4228    Y=             -0.1734    Z=             -0.2279  Tot=              0.5107
 Quadrupole moment (field-independent basis, Debye-Ang):
   XX=            -47.7429   YY=            -48.6959   ZZ=            -50.3854
   XY=              0.0696   XZ=             -0.2997   YZ=              0.0223
 Traceless Quadrupole moment (field-independent basis, Debye-Ang):
   XX=              1.1985   YY=              0.2455   ZZ=             -1.4440
   XY=              0.0696   XZ=             -0.2997   YZ=              0.0223
 Octapole moment (field-independent basis, Debye-Ang**2):
  XXX=             12.8518  YYY=             -3.7274  ZZZ=              3.1271  XYY=             -3.8525
  XXY=              1.4788  XXZ=             -1.1190  XZZ=             -2.6582  YZZ=             -0.1160
  YYZ=             -5.2237  XYZ=              0.0618
 Hexadecapole moment (field-independent basis, Debye-Ang**3):
 XXXX=           -694.4250 YYYY=           -572.9102 ZZZZ=           -385.0756 XXXY=              2.1788
 XXXZ=             -3.1682 YYYX=             -0.5873 YYYZ=              3.6415 ZZZX=             -6.8374
 ZZZY=             -3.1193 XXYY=           -218.5759 XXZZ=           -185.2647 YYZZ=           -162.5128
 XXYZ=             -1.7146 YYXZ=              5.4971 ZZXY=              0.7671
 N-N= 5.464380732603D+02 E-N=-1.939595534803D+03  KE= 3.701290878574D+02
 No NMR shielding tensors so no spin-rotation constants.
 Leave Link  601 at Thu Oct  1 18:03:27 2020, MaxMem=  3221225472 cpu:               1.1 elap:               0.2
 (Enter /usr/local/Gaussian/gaussian-16-A03-avx2/g16/linda-exe/l701.exel)
 ... and contract with generalized density number  0.
 Compute integral first derivatives.
 Leave Link  701 at Thu Oct  1 18:03:29 2020, MaxMem=  3221225472 cpu:               1.5 elap:               0.3
 (Enter /usr/local/Gaussian/gaussian-16-A03-avx2/g16/l702.exe)
 L702 exits ... SP integral derivatives will be done elsewhere.
 Leave Link  702 at Thu Oct  1 18:03:29 2020, MaxMem=  3221225472 cpu:               0.1 elap:               0.0
 (Enter /usr/local/Gaussian/gaussian-16-A03-avx2/g16/linda-exe/l703.exel)
 Integral derivatives from FoFJK, PRISM(SPDF).
 Compute integral first derivatives, UseDBF=F ICtDFT=           0.
 Calling FoFJK, ICntrl=      2127 FMM=F ISym2X=0 I1Cent= 0 IOpClX= 0 NMat=1 NMatS=1 NMatT=0.
 FoFJK:  IHMeth= 1 ICntrl=    2127 DoSepK=T KAlg= 0 I1Cent=           0 FoldK=F
 IRaf=         1 NMat=       1 IRICut=       1 DoRegI=T DoRafI=F ISym2E= 0 IDoP0=0 IntGTp=1.
 FoFCou: FMM=F IPFlag=           0 FMFlag=      100000 FMFlg1=         800
         NFxFlg=           0 DoJE=F BraDBF=F KetDBF=F FulRan=T
         wScrn=  0.000000 ICntrl=      2527 IOpCl=  0 I1Cent=           0 NGrid=           0
         NMat0=    1 NMatS0=      1 NMatT0=    0 NMatD0=    1 NMtDS0=    0 NMtDT0=    0
 Symmetry not used in FoFCou.
 Leave Link  703 at Thu Oct  1 18:03:49 2020, MaxMem=  3221225472 cpu:             109.8 elap:              18.3
 (Enter /usr/local/Gaussian/gaussian-16-A03-avx2/g16/l716.exe)
 Dipole        = 1.66333159D-01-6.82387066D-02-8.96800611D-02
 ***** Axes restored to original set *****
 -------------------------------------------------------------------
 Center     Atomic                   Forces (Hartrees/Bohr)
 Number     Number              X              Y              Z
 -------------------------------------------------------------------
      1        6           0.008810722   -0.018479028    0.031180899
      2        1           0.001525464    0.015078423   -0.003035457
      3        1           0.000667145   -0.004198654   -0.009542049
      4        6           0.012186366    0.012920836   -0.020666690
      5        1          -0.000335585    0.003804366    0.013623942
      6        1          -0.013053791   -0.000268356    0.000399575
      7        1          -0.000194399   -0.013635118    0.003208932
      8        6           0.027106843    0.003067553   -0.022806897
      9        1          -0.004273298   -0.009563804    0.006806863
     10        1          -0.012018703    0.007763972   -0.000423322
     11        6          -0.021395761   -0.006533768    0.007838713
     12        1           0.005316030    0.010987008   -0.004007672
     13        1           0.004818230    0.005613774    0.011158071
     14        1           0.011850280   -0.000904789    0.004854103
     15        6          -0.031696848   -0.016829630   -0.016032650
     16        1          -0.003554402    0.011171921    0.006359001
     17        1           0.000824232    0.005870947    0.000137629
     18        6           0.012215827    0.009777845    0.020569881
     19        1          -0.011691413    0.003877111   -0.005658219
     20        1           0.006097713    0.002788663   -0.011426887
     21        1          -0.001889352   -0.013702328   -0.006076955
     22        6           0.024707305    0.019334911   -0.013470678
     23        1          -0.005086247    0.000392198    0.011695055
     24        1          -0.011612648   -0.004084910   -0.004043646
     25        6          -0.016607232   -0.009024266    0.009524571
     26        1           0.008446074   -0.009778363    0.004186837
     27        1           0.003715935   -0.003099494   -0.013244798
     28        1           0.013168698   -0.008235623   -0.000453128
     29        7          -0.008047183    0.005888602   -0.000655024
 -------------------------------------------------------------------
 Cartesian Forces:  Max     0.031696848 RMS     0.011461004
 Leave Link  716 at Thu Oct  1 18:03:50 2020, MaxMem=  3221225472 cpu:               0.2 elap:               0.0
 (Enter /usr/local/Gaussian/gaussian-16-A03-avx2/g16/l103.exe)

 GradGradGradGradGradGradGradGradGradGradGradGradGradGradGradGradGradGrad
 Berny optimization.
 FormGI is forming the generalized inverse of G from B-inverse, IUseBI=4.
 Internal  Forces:  Max     0.082378081 RMS     0.012461085
 Search for a local minimum.
 Step number   1 out of a maximum of  164
 All quantities printed in internal units (Hartrees-Bohrs-Radians)
 RMS Force = .12461D-01 SwitMx=.10000D-02 MixMth= 1
 Mixed Optimization -- RFO/linear search
 Second derivative matrix not updated -- first step.
 ITU=  0
     Eigenvalues ---    0.00230   0.00230   0.00230   0.00230   0.00237
     Eigenvalues ---    0.00237   0.00237   0.00237   0.03837   0.03837
     Eigenvalues ---    0.03837   0.03837   0.04734   0.04734   0.04734
     Eigenvalues ---    0.04894   0.04894   0.04894   0.04894   0.05720
     Eigenvalues ---    0.05720   0.05720   0.05720   0.05720   0.05720
     Eigenvalues ---    0.05720   0.05720   0.07653   0.07653   0.07653
     Eigenvalues ---    0.07653   0.11700   0.11700   0.11700   0.11700
     Eigenvalues ---    0.14384   0.14384   0.16000   0.16000   0.16000
     Eigenvalues ---    0.16000   0.16000   0.16000   0.16000   0.16000
     Eigenvalues ---    0.16000   0.16000   0.16000   0.16000   0.21948
     Eigenvalues ---    0.21948   0.21948   0.21948   0.28519   0.28519
     Eigenvalues ---    0.28519   0.28519   0.28519   0.28519   0.28519
     Eigenvalues ---    0.28519   0.37230   0.37230   0.37230   0.37230
     Eigenvalues ---    0.37230   0.37230   0.37230   0.37230   0.37230
     Eigenvalues ---    0.37230   0.37230   0.37230   0.37230   0.37230
     Eigenvalues ---    0.37230   0.37230   0.37230   0.37230   0.37230
     Eigenvalues ---    0.37230
 RFO step:  Lambda=-8.80064086D-02 EMin= 2.30000000D-03
 Linear search not attempted -- first point.
 Maximum step size (   0.300) exceeded in Quadratic search.
    -- Step size scaled by   0.618
 Iteration  1 RMS(Cart)=  0.14960812 RMS(Int)=  0.00725941
 Iteration  2 RMS(Cart)=  0.01612646 RMS(Int)=  0.00064554
 Iteration  3 RMS(Cart)=  0.00021177 RMS(Int)=  0.00064081
 Iteration  4 RMS(Cart)=  0.00000009 RMS(Int)=  0.00064081
 ITry= 1 IFail=0 DXMaxC= 7.58D-01 DCOld= 1.00D+10 DXMaxT= 3.00D-01 DXLimC= 3.00D+00 Rises=F
 Variable       Old X    -DE/DX   Delta X   Delta X   Delta X     New X
                                 (Linear)    (Quad)   (Total)
    R1        2.02201   0.01370   0.00000   0.01839   0.01839   2.04040
    R2        2.02201   0.00955   0.00000   0.01282   0.01282   2.03482
    R3        2.91018  -0.00367   0.00000  -0.00607  -0.00607   2.90410
    R4        2.91018  -0.00961   0.00000  -0.01590  -0.01590   2.89427
    R5        2.02201   0.01281   0.00000   0.01719   0.01719   2.03920
    R6        2.02201   0.01305   0.00000   0.01752   0.01752   2.03953
    R7        2.02201   0.01279   0.00000   0.01716   0.01716   2.03917
    R8        2.02201   0.01123   0.00000   0.01507   0.01507   2.03708
    R9        2.02201   0.01317   0.00000   0.01767   0.01767   2.03968
   R10        2.91018   0.00038   0.00000   0.00063   0.00063   2.91081
   R11        2.91018   0.01151   0.00000   0.01906   0.01906   2.92923
   R12        2.02201   0.01028   0.00000   0.01379   0.01379   2.03580
   R13        2.02201   0.01339   0.00000   0.01797   0.01797   2.03998
   R14        2.02201   0.00637   0.00000   0.00855   0.00855   2.03056
   R15        2.02201   0.01216   0.00000   0.01632   0.01632   2.03832
   R16        2.02201  -0.00034   0.00000  -0.00045  -0.00045   2.02155
   R17        2.91018  -0.00120   0.00000  -0.00199  -0.00199   2.90819
   R18        2.91018   0.00140   0.00000   0.00231   0.00231   2.91249
   R19        2.02201   0.01238   0.00000   0.01662   0.01662   2.03863
   R20        2.02201   0.01322   0.00000   0.01774   0.01774   2.03975
   R21        2.02201   0.01340   0.00000   0.01798   0.01798   2.03999
   R22        2.02201   0.01062   0.00000   0.01425   0.01425   2.03626
   R23        2.02201   0.01175   0.00000   0.01577   0.01577   2.03777
   R24        2.91018   0.00889   0.00000   0.01472   0.01472   2.92490
   R25        2.91018   0.01924   0.00000   0.03186   0.03186   2.94204
   R26        2.02201   0.01335   0.00000   0.01792   0.01792   2.03992
   R27        2.02201   0.01325   0.00000   0.01779   0.01779   2.03980
   R28        2.02201  -0.00177   0.00000  -0.00238  -0.00238   2.01963
    A1        1.91063   0.00345   0.00000   0.00297   0.00257   1.91320
    A2        1.91063  -0.00192   0.00000   0.00241   0.00272   1.91335
    A3        1.91063  -0.00988   0.00000  -0.02613  -0.02642   1.88422
    A4        1.91063  -0.00323   0.00000  -0.00062  -0.00044   1.91019
    A5        1.91063  -0.00760   0.00000  -0.01838  -0.01868   1.89195
    A6        1.91063   0.01917   0.00000   0.03976   0.03984   1.95047
    A7        1.91063   0.00718   0.00000   0.01893   0.01880   1.92943
    A8        1.91063  -0.00259   0.00000  -0.00845  -0.00839   1.90224
    A9        1.91063   0.00664   0.00000   0.01750   0.01736   1.92800
   A10        1.91063  -0.00364   0.00000  -0.01096  -0.01090   1.89973
   A11        1.91063  -0.00410   0.00000  -0.00625  -0.00656   1.90407
   A12        1.91063  -0.00349   0.00000  -0.01078  -0.01072   1.89991
   A13        1.91063   0.01018   0.00000   0.00428   0.00221   1.91284
   A14        1.91063  -0.01543   0.00000  -0.02153  -0.02128   1.88935
   A15        1.91063  -0.02002   0.00000  -0.03979  -0.04108   1.86955
   A16        1.91063  -0.01554   0.00000  -0.02468  -0.02355   1.88709
   A17        1.91063  -0.02291   0.00000  -0.05134  -0.05202   1.85862
   A18        1.91063   0.06372   0.00000   0.13306   0.13342   2.04405
   A19        1.91063   0.00869   0.00000   0.02384   0.02348   1.93412
   A20        1.91063  -0.00516   0.00000  -0.01691  -0.01675   1.89389
   A21        1.91063   0.01117   0.00000   0.02966   0.02932   1.93996
   A22        1.91063  -0.00438   0.00000  -0.01459  -0.01446   1.89618
[...]
 Alpha virt. eigenvalues --    4.64168   4.65654  23.76436  23.78327  23.78722
 Alpha virt. eigenvalues --   23.80935  23.90515  23.91659  23.91783  23.96743
 Alpha virt. eigenvalues --   35.33885
          Condensed to atoms (all electrons):
               1          2          3          4          5          6
     1  C    5.556740   0.419204   0.447625   0.098376  -0.008484  -0.049140
     2  H    0.419204   0.438525  -0.022353  -0.018489  -0.005438  -0.005091
     3  H    0.447625  -0.022353   0.458550  -0.043617   0.004407  -0.006985
     4  C    0.098376  -0.018489  -0.043617   5.346559   0.409719   0.416236
     5  H   -0.008484  -0.005438   0.004407   0.409719   0.497194  -0.019700
     6  H   -0.049140  -0.005091  -0.006985   0.416236  -0.019700   0.463993
     7  H   -0.020520   0.003932  -0.004217   0.408524  -0.024946  -0.019261
     8  C   -0.021959  -0.022475   0.017968  -0.025156  -0.001367   0.001481
     9  H   -0.001267  -0.001253  -0.000155   0.000095   0.002272   0.000321
    10  H   -0.036282  -0.000232   0.000514   0.013255   0.000496  -0.000239
    11  C   -0.012056  -0.006192  -0.003092  -0.002826  -0.000907   0.000579
    12  H    0.009980  -0.000010  -0.000014  -0.002966  -0.000010   0.000003
    13  H   -0.001021  -0.000007   0.000011   0.001353   0.000047  -0.000001
    14  H   -0.004805   0.000023   0.000037   0.002556   0.000045  -0.000004
    15  C   -0.243539  -0.027197  -0.023138   0.049031   0.001973   0.001661
    16  H   -0.020954  -0.000873  -0.000956  -0.004305   0.000017  -0.000039
    17  H    0.020303   0.000223  -0.000213  -0.001326  -0.000017   0.000012
    18  C    0.090058   0.006961   0.021694  -0.039550  -0.000239   0.000882
    19  H   -0.001092   0.000561   0.000532   0.004810  -0.000019   0.000020
    20  H    0.001021  -0.000216   0.000446   0.000442   0.000002  -0.000002
    21  H   -0.014784  -0.000117  -0.003288  -0.005545   0.000000  -0.000009
    22  C   -0.348991   0.013536  -0.032012   0.044001  -0.012489   0.002955
    23  H   -0.016315  -0.000387  -0.000655   0.001896  -0.000670   0.000010
    24  H    0.012612   0.001049   0.000101   0.002241   0.000028  -0.000341
    25  C    0.114670   0.000825  -0.001411  -0.024480  -0.002194   0.000336
    26  H    0.000420   0.000008  -0.000045   0.000294  -0.000008  -0.000002
    27  H   -0.002346  -0.000021  -0.000011  -0.001315   0.000002  -0.000001
    28  H   -0.004768   0.000045   0.000044   0.002545  -0.000003  -0.000001
    29  N    0.162957   0.002869  -0.021875  -0.116714  -0.012788   0.017153
               7          8          9         10         11         12
     1  C   -0.020520  -0.021959  -0.001267  -0.036282  -0.012056   0.009980
     2  H    0.003932  -0.022475  -0.001253  -0.000232  -0.006192  -0.000010
     3  H   -0.004217   0.017968  -0.000155   0.000514  -0.003092  -0.000014
     4  C    0.408524  -0.025156   0.000095   0.013255  -0.002826  -0.002966
     5  H   -0.024946  -0.001367   0.002272   0.000496  -0.000907  -0.000010
     6  H   -0.019261   0.001481   0.000321  -0.000239   0.000579   0.000003
     7  H    0.489642  -0.008699  -0.002007  -0.000148  -0.004602   0.000008
     8  C   -0.008699   5.616442   0.438401   0.403730   0.027511  -0.032355
     9  H   -0.002007   0.438401   0.473298  -0.022829  -0.041498   0.005225
    10  H   -0.000148   0.403730  -0.022829   0.444588  -0.021696  -0.003708
    11  C   -0.004602   0.027511  -0.041498  -0.021696   5.389153   0.421522
    12  H    0.000008  -0.032355   0.005225  -0.003708   0.421522   0.496261
    13  H   -0.000009  -0.042115  -0.004734  -0.007301   0.415923  -0.018229
    14  H    0.000005  -0.009561  -0.007263   0.004113   0.390619  -0.026256
    15  C   -0.007143  -0.232365   0.016651  -0.006431   0.072145  -0.007299
    16  H    0.000050  -0.026920   0.000566   0.000411   0.006608   0.000114
    17  H    0.000041   0.006412  -0.000471  -0.001708   0.005518   0.002431
    18  C    0.003083   0.062739   0.000543  -0.009131  -0.042359   0.006028
    19  H    0.000029   0.001471  -0.000038   0.000011   0.000352  -0.000024
    20  H   -0.000001   0.002022   0.000009  -0.000057  -0.000378   0.000037
    21  H    0.000012  -0.006143   0.000045   0.000066   0.003352   0.000043
    22  C    0.001717  -0.342498  -0.040316   0.031436   0.098058  -0.038657
    23  H   -0.002234  -0.023589   0.002331   0.000662   0.013010   0.000305
    24  H    0.001023   0.019512  -0.000094  -0.000340  -0.008174   0.000009
    25  C    0.004841   0.129166   0.009439  -0.009634  -0.074936   0.016572
    26  H    0.000043   0.003567  -0.000046   0.000012  -0.000388  -0.000016
    27  H    0.000006  -0.012551   0.000031   0.000120   0.004054  -0.000055
    28  H    0.000019  -0.013696  -0.000057  -0.000141   0.003213  -0.001828
    29  N    0.004453   0.228673  -0.031710   0.000579  -0.124612  -0.000741
              13         14         15         16         17         18
     1  C   -0.001021  -0.004805  -0.243539  -0.020954   0.020303   0.090058
     2  H   -0.000007   0.000023  -0.027197  -0.000873   0.000223   0.006961
     3  H    0.000011   0.000037  -0.023138  -0.000956  -0.000213   0.021694
     4  C    0.001353   0.002556   0.049031  -0.004305  -0.001326  -0.039550
     5  H    0.000047   0.000045   0.001973   0.000017  -0.000017  -0.000239
     6  H   -0.000001  -0.000004   0.001661  -0.000039   0.000012   0.000882
     7  H   -0.000009   0.000005  -0.007143   0.000050   0.000041   0.003083
     8  C   -0.042115  -0.009561  -0.232365  -0.026920   0.006412   0.062739
     9  H   -0.004734  -0.007263   0.016651   0.000566  -0.000471   0.000543
    10  H   -0.007301   0.004113  -0.006431   0.000411  -0.001708  -0.009131
    11  C    0.415923   0.390619   0.072145   0.006608   0.005518  -0.042359
    12  H   -0.018229  -0.026256  -0.007299   0.000114   0.002431   0.006028
    13  H    0.465438  -0.021691   0.000366  -0.000149   0.000127   0.000138
    14  H   -0.021691   0.505255  -0.001418  -0.000156  -0.001963  -0.003232
    15  C    0.000366  -0.001418   5.638459   0.414373   0.447044  -0.000295
    16  H   -0.000149  -0.000156   0.414373   0.436032  -0.024749  -0.018560
    17  H    0.000127  -0.001963   0.447044  -0.024749   0.478479  -0.049881
    18  C    0.000138  -0.003232  -0.000295  -0.018560  -0.049881   5.418955
    19  H    0.000000   0.000001   0.015382  -0.006015   0.005513   0.387115
    20  H   -0.000001  -0.000006  -0.045163  -0.004104  -0.006824   0.419039
    21  H   -0.000002  -0.000015  -0.019092   0.003586  -0.005305   0.402758
    22  C    0.001025   0.028145   0.113245   0.029312  -0.046858  -0.146283
    23  H   -0.000333  -0.000545   0.031792  -0.000009  -0.000243  -0.005051
    24  H    0.000024   0.000144  -0.022927  -0.000419  -0.000741   0.001481
    25  C    0.001433  -0.021918  -0.141834  -0.008144   0.029026   0.066943
    26  H   -0.000014   0.000117  -0.000490  -0.000012   0.000508   0.000891
    27  H   -0.000040   0.000323   0.033769   0.000396  -0.005664  -0.012217
    28  H    0.000603  -0.000644  -0.013863  -0.000188  -0.004271  -0.000129
    29  N    0.014516   0.000158   0.125992   0.001605  -0.052974  -0.040457
              19         20         21         22         23         24
     1  C   -0.001092   0.001021  -0.014784  -0.348991  -0.016315   0.012612
     2  H    0.000561  -0.000216  -0.000117   0.013536  -0.000387   0.001049
     3  H    0.000532   0.000446  -0.003288  -0.032012  -0.000655   0.000101
     4  C    0.004810   0.000442  -0.005545   0.044001   0.001896   0.002241
     5  H   -0.000019   0.000002   0.000000  -0.012489  -0.000670   0.000028
     6  H    0.000020  -0.000002  -0.000009   0.002955   0.000010  -0.000341
     7  H    0.000029  -0.000001   0.000012   0.001717  -0.002234   0.001023
     8  C    0.001471   0.002022  -0.006143  -0.342498  -0.023589   0.019512
     9  H   -0.000038   0.000009   0.000045  -0.040316   0.002331  -0.000094
    10  H    0.000011  -0.000057   0.000066   0.031436   0.000662  -0.000340
    11  C    0.000352  -0.000378   0.003352   0.098058   0.013010  -0.008174
    12  H   -0.000024   0.000037   0.000043  -0.038657   0.000305   0.000009
    13  H    0.000000  -0.000001  -0.000002   0.001025  -0.000333   0.000024
    14  H    0.000001  -0.000006  -0.000015   0.028145  -0.000545   0.000144
    15  C    0.015382  -0.045163  -0.019092   0.113245   0.031792  -0.022927
    16  H   -0.006015  -0.004104   0.003586   0.029312  -0.000009  -0.000419
    17  H    0.005513  -0.006824  -0.005305  -0.046858  -0.000243  -0.000741
    18  C    0.387115   0.419039   0.402758  -0.146283  -0.005051   0.001481
    19  H    0.499899  -0.018471  -0.026028  -0.000575   0.000021   0.000084
    20  H   -0.018471   0.460263  -0.020067  -0.000879  -0.000003   0.000027
    21  H   -0.026028  -0.020067   0.485175   0.023111   0.000173  -0.005723
    22  C   -0.000575  -0.000879   0.023111   6.057971   0.459833   0.372975
    23  H    0.000021  -0.000003   0.000173   0.459833   0.455780  -0.031432
    24  H    0.000084   0.000027  -0.005723   0.372975  -0.031432   0.460860
    25  C   -0.003975   0.002947  -0.015159  -0.220530  -0.062650  -0.002819
    26  H    0.000011  -0.000010  -0.000244  -0.043462  -0.006130  -0.005772
    27  H    0.000265  -0.000513   0.000224   0.042482   0.005409  -0.009021
    28  H   -0.000015   0.000032  -0.000167  -0.024996  -0.005860   0.004738
    29  N   -0.037139   0.012135   0.025556   0.172972  -0.034850  -0.013804
              25         26         27         28         29
     1  C    0.114670   0.000420  -0.002346  -0.004768   0.162957
     2  H    0.000825   0.000008  -0.000021   0.000045   0.002869
     3  H   -0.001411  -0.000045  -0.000011   0.000044  -0.021875
     4  C   -0.024480   0.000294  -0.001315   0.002545  -0.116714
     5  H   -0.002194  -0.000008   0.000002  -0.000003  -0.012788
     6  H    0.000336  -0.000002  -0.000001  -0.000001   0.017153
     7  H    0.004841   0.000043   0.000006   0.000019   0.004453
     8  C    0.129166   0.003567  -0.012551  -0.013696   0.228673
     9  H    0.009439  -0.000046   0.000031  -0.000057  -0.031710
    10  H   -0.009634   0.000012   0.000120  -0.000141   0.000579
    11  C   -0.074936  -0.000388   0.004054   0.003213  -0.124612
    12  H    0.016572  -0.000016  -0.000055  -0.001828  -0.000741
    13  H    0.001433  -0.000014  -0.000040   0.000603   0.014516
    14  H   -0.021918   0.000117   0.000323  -0.000644   0.000158
    15  C   -0.141834  -0.000490   0.033769  -0.013863   0.125992
    16  H   -0.008144  -0.000012   0.000396  -0.000188   0.001605
    17  H    0.029026   0.000508  -0.005664  -0.004271  -0.052974
    18  C    0.066943   0.000891  -0.012217  -0.000129  -0.040457
    19  H   -0.003975   0.000011   0.000265  -0.000015  -0.037139
    20  H    0.002947  -0.000010  -0.000513   0.000032   0.012135
    21  H   -0.015159  -0.000244   0.000224  -0.000167   0.025556
    22  C   -0.220530  -0.043462   0.042482  -0.024996   0.172972
    23  H   -0.062650  -0.006130   0.005409  -0.005860  -0.034850
    24  H   -0.002819  -0.005772  -0.009021   0.004738  -0.013804
    25  C    5.566856   0.417929   0.353506   0.413905  -0.041938
    26  H    0.417929   0.464825  -0.019031  -0.018494   0.011501
    27  H    0.353506  -0.019031   0.510621  -0.027493  -0.030331
    28  H    0.413905  -0.018494  -0.027493   0.496767   0.025515
    29  N   -0.041938   0.011501  -0.030331   0.025515   6.985059
 Mulliken charges:
               1
     1  C   -0.125640
     2  H    0.222590
     3  H    0.212108
     4  C   -0.515643
     5  H    0.173076
     6  H    0.195175
     7  H    0.176362
     8  C   -0.137648
     9  H    0.204514
    10  H    0.219883
    11  C   -0.507901
    12  H    0.173630
    13  H    0.194641
    14  H    0.167934
    15  C   -0.169688
    16  H    0.223480
    17  H    0.207572
    18  C   -0.521925
    19  H    0.177312
    20  H    0.198275
    21  H    0.177585
    22  C   -0.194225
    23  H    0.219732
    24  H    0.224700
    25  C   -0.496770
    26  H    0.194038
    27  H    0.169403
    28  H    0.169190
    29  N   -0.231760
 Sum of Mulliken charges =   1.00000
 Mulliken charges with hydrogens summed into heavy atoms:
               1
     1  C    0.309057
     4  C    0.028970
     8  C    0.286748
    11  C    0.028305
    15  C    0.261364
    18  C    0.031247
    22  C    0.250207
    25  C    0.035861
    29  N   -0.231760
 Electronic spatial extent (au):  <R**2>=           1411.3922
 Charge=              1.0000 electrons
 Dipole moment (field-independent basis, Debye):
    X=              0.4951    Y=             -0.0303    Z=             -0.3050  Tot=              0.5823
 Quadrupole moment (field-independent basis, Debye-Ang):
   XX=            -47.3417   YY=            -48.0200   ZZ=            -50.3210
   XY=             -0.0146   XZ=             -0.1383   YZ=              0.0549
 Traceless Quadrupole moment (field-independent basis, Debye-Ang):
   XX=              1.2192   YY=              0.5409   ZZ=             -1.7601
   XY=             -0.0146   XZ=             -0.1383   YZ=              0.0549
 Octapole moment (field-independent basis, Debye-Ang**2):
  XXX=             13.1146  YYY=             -2.6483  ZZZ=              3.3844  XYY=             -3.8779
  XXY=              1.8979  XXZ=              1.9747  XZZ=             -3.9676  YZZ=              0.1261
  YYZ=             -8.0022  XYZ=              0.5633
 Hexadecapole moment (field-independent basis, Debye-Ang**3):
 XXXX=           -700.7294 YYYY=           -629.0593 ZZZZ=           -392.0319 XXXY=              4.8834
 XXXZ=              4.2736 YYYX=             -1.8677 YYYZ=              4.5774 ZZZX=             -9.9459
 ZZZY=             -0.6730 XXYY=           -227.2019 XXZZ=           -185.7977 YYZZ=           -173.1985
 XXYZ=             -2.8899 YYXZ=              6.4320 ZZXY=             -2.2520
 N-N= 5.390932696424D+02 E-N=-1.924700918062D+03  KE= 3.696705777117D+02
 No NMR shielding tensors so no spin-rotation constants.
 Leave Link  601 at Thu Oct  1 18:20:49 2020, MaxMem=  3221225472 cpu:               1.1 elap:               0.2
 (Enter /usr/local/Gaussian/gaussian-16-A03-avx2/g16/linda-exe/l602.exel)
 FitSet:  NAtFit=    29 NAtPot=    29 NAtFrz=     0 MDM=    33 TotChg=   1.00000
 Breneman (CHELPG) radii used.
 Generate Potential Derived Charges using the Breneman model, NDens= 1.
 Grid spacing= 0.300 Box extension= 2.800
 NStep X,Y,Z=   40     40     36   Total possible points=       57600
 Number of Points to Fit=   14488

 **********************************************************************

            Electrostatic Properties Using The SCF Density

 **********************************************************************

       Atomic Center    1 is at   1.609576  0.507671 -0.197489
       Atomic Center    4 is at   2.649352 -0.279065  0.579441
       Atomic Center    8 is at   0.183091 -1.429565 -0.680484
       Atomic Center   11 is at  -1.147268 -2.150630 -0.785736
       Atomic Center   15 is at  -0.681573  0.859778 -1.026119
       Atomic Center   18 is at  -0.631974  2.351060 -0.742730
       Atomic Center   22 is at  -0.283969  0.027898  1.324033
       Atomic Center   25 is at  -1.779302  0.115013  1.579199
       Atomic Center   29 is at   0.178345 -0.011165 -0.129641
   14488 points will be used for fitting atomic charges
 Fitting point charges to electrostatic potential
 Charges from ESP fit, RMS=   0.00129 RRMS=   0.01086:
 ESP charges:
               1
     1  C   -0.066532
     2  H    0.102401
     3  H    0.109885
     4  C   -0.250632
     5  H    0.086485
     6  H    0.131988
     7  H    0.080380
     8  C   -0.044840
     9  H    0.113222
    10  H    0.097358
    11  C   -0.279554
    12  H    0.093036
    13  H    0.131765
    14  H    0.104648
    15  C    0.042866
    16  H    0.074842
    17  H    0.080504
    18  C   -0.268027
    19  H    0.084784
    20  H    0.125535
    21  H    0.095470
    22  C    0.110937
    23  H    0.067295
    24  H    0.062722
    25  C   -0.300983
    26  H    0.123170
    27  H    0.098743
    28  H    0.104860
    29  N    0.087670
 Sum of ESP charges =   1.00000
 ESP charges with hydrogens summed into heavy atoms:
               1
     1  C    0.145754
     4  C    0.048222
     8  C    0.165741
    11  C    0.049895
    15  C    0.198213
    18  C    0.037763
    22  C    0.240954
    25  C    0.025789
    29  N    0.087670
 Charge=   1.00000 Dipole=     0.4783    -0.0297    -0.2958 Tot=     0.5632
 -----------------------------------------------------------------

              Electrostatic Properties (Atomic Units)

 -----------------------------------------------------------------
    Center     Electric         -------- Electric Field --------
               Potential          X             Y             Z
 -----------------------------------------------------------------
    1 Atom    -14.565912
    2 Atom     -0.936653
    3 Atom     -0.938634
    4 Atom    -14.626912
    5 Atom     -0.964171
    6 Atom     -0.960431
    7 Atom     -0.961908
    8 Atom    -14.565796
    9 Atom     -0.938360
   10 Atom     -0.937633
   11 Atom    -14.627166
   12 Atom     -0.962572
   13 Atom     -0.960898
   14 Atom     -0.964296
   15 Atom    -14.566688
   16 Atom     -0.936683
   17 Atom     -0.939728
   18 Atom    -14.626435
   19 Atom     -0.964750
   20 Atom     -0.960421
   21 Atom     -0.959911
   22 Atom    -14.564494
   23 Atom     -0.936777
   24 Atom     -0.937809
   25 Atom    -14.627667
   26 Atom     -0.960840
   27 Atom     -0.964565
   28 Atom     -0.963766
   29 Atom    -18.119597
 -----------------------------------------------------------------
 Leave Link  602 at Thu Oct  1 18:20:51 2020, MaxMem=  3221225472 cpu:               3.4 elap:               0.6
 (Enter /usr/local/Gaussian/gaussian-16-A03-avx2/g16/l9999.exe)
 1\1\GINC-NODE-024\SP\RCAM-B3LYP\6-311+G(d,p)\C8H20N1(1+)\ROOT\01-Oct-2
 020\0\\#P CAM-B3LYP/6-311+G** Guess=Read Geom=Check Pop=CHelpG\\NEt4 c
 harge distribution\\1,1\C,0,-1.3217535304,-0.8018893996,0.1003125412\H
 ,0,-1.7025114788,0.2160102062,0.0066903292\H,0,-1.6649646798,-1.367527
 2673,-0.7618982454\C,0,-1.8308593746,-1.4505277614,1.3745922005\H,0,-1
 .6297735868,-0.8642390689,2.2696931134\H,0,-2.9154440589,-1.5283443525
 ,1.2838959064\H,0,-1.451267307,-2.462206492,1.5169750464\C,0,0.7036388
 074,0.1326403701,1.1227929701\H,0,0.4182022035,-0.4097959446,2.0204954
 425\H,0,0.1238067868,1.0559929805,1.0933278319\C,0,2.187142538,0.44543
 28746,1.1701833419\H,0,2.5546959478,0.9591080742,0.2828606605\H,0,2.34
 01513816,1.1206337578,2.013863274\H,0,2.7976662673,-0.4357963221,1.356
 722311\C,0,0.4878796028,0.0450739361,-1.3376900031\H,0,0.1420182907,1.
 0671331308,-1.1784991598\H,0,1.568876278,0.0756306661,-1.4327137517\C,
 0,-0.1384798611,-0.5382506281,-2.5923211015\H,0,-1.2158544453,-0.38825
 17663,-2.6389336123\H,0,0.293449146,-0.018297009,-3.4486685435\H,0,0.0
 737166548,-1.5999577839,-2.7208156327\C,0,0.7803524272,-2.1023998258,-
 0.0430301933\H,0,0.8358577782,-2.3965216841,1.0036323801\H,0,0.0378257
 006,-2.7401632858,-0.5206829413\C,0,2.1240799575,-2.2989174938,-0.7245
 694508\H,0,2.4121297849,-3.3393423489,-0.5640052589\H,0,2.0774260045,-
 2.1445829961,-1.8014523996\H,0,2.9178839485,-1.6785680734,-0.316920925
 5\N,0,0.1912196567,-0.6947997928,-0.0468557298\\Version=ES64L-G16RevA.
 03\State=1-A\HF=-371.2906507\RMSD=2.205e-09\Dipole=-0.1860811,0.110573
 ,0.0750681\Quadrupole=0.7937879,-1.2260437,0.4322558,0.1623197,-0.2375
 133,0.3426235\PG=C01 [X(C8H20N1)]\\@


 DEPRESSION IS WAITING FOR YOUR SHIP TO COME IN,
 AND FINDING OUT IT'S THE TITANIC.
 Job cpu time:       0 days  0 hours  0 minutes  4.5 seconds.
 Elapsed time:       0 days  0 hours  0 minutes  8.0 seconds.
 File lengths (MBytes):  RWF=     57 Int=      0 D2E=      0 Chk=     10 Scr=      1
 Normal termination of Gaussian 16 at Thu Oct  1 18:20:51 2020.
