 Set GAUSS_PDEF to "6".
 Set GAUSS_MDEF to "24576MB".
 Set GAUSS_WDEF to "node-015:1,node-017:1".
 Set GAUSS_SDEF to "ssh".
 Entering Gaussian System, Link 0=g16
 Initial command:
 /usr/local/Gaussian/gaussian-16-A03-avx2/g16/l1.exe "/tmp/168285.bcm-head.cm.cluster/Gau-18592.inp" -scrdir="/tmp/168285.bcm-head.cm.cluster/"
 Default linda workers: node-015:1,node-017:1
 Default is to use   6 SMP processors on each worker.
 Entering Link 1 = /usr/local/Gaussian/gaussian-16-A03-avx2/g16/l1.exe PID=     18593.
  
 Copyright (c) 1988,1990,1992,1993,1995,1998,2003,2009,2016,
            Gaussian, Inc.  All Rights Reserved.
  
 This is part of the Gaussian(R) 16 program.  It is based on
 the Gaussian(R) 09 system (copyright 2009, Gaussian, Inc.),
 the Gaussian(R) 03 system (copyright 2003, Gaussian, Inc.),
 the Gaussian(R) 98 system (copyright 1998, Gaussian, Inc.),
 the Gaussian(R) 94 system (copyright 1995, Gaussian, Inc.),
 the Gaussian 92(TM) system (copyright 1992, Gaussian, Inc.),
 the Gaussian 90(TM) system (copyright 1990, Gaussian, Inc.),
 the Gaussian 88(TM) system (copyright 1988, Gaussian, Inc.),
 the Gaussian 86(TM) system (copyright 1986, Carnegie Mellon
 University), and the Gaussian 82(TM) system (copyright 1983,
 Carnegie Mellon University). Gaussian is a federally registered
 trademark of Gaussian, Inc.
  
 This software contains proprietary and confidential information,
 including trade secrets, belonging to Gaussian, Inc.
  
 This software is provided under written license and may be
 used, copied, transmitted, or stored only in accord with that
 written license.
  
 The following legend is applicable only to US Government
 contracts under FAR:
  
                    RESTRICTED RIGHTS LEGEND
  
 Use, reproduction and disclosure by the US Government is
 subject to restrictions as set forth in subparagraphs (a)
 and (c) of the Commercial Computer Software - Restricted
 Rights clause in FAR 52.227-19.
  
 Gaussian, Inc.
 340 Quinnipiac St., Bldg. 40, Wallingford CT 06492
  
  
 ---------------------------------------------------------------
 Warning -- This program may not be used in any manner that
 competes with the business of Gaussian, Inc. or will provide
 assistance to any competitor of Gaussian, Inc.  The licensee
 of this program is prohibited from giving any competitor of
 Gaussian, Inc. access to this program.  By using this program,
 the user acknowledges that Gaussian, Inc. is engaged in the
 business of creating and licensing software in the field of
 computational chemistry and represents and warrants to the
 licensee that it is not a competitor of Gaussian, Inc. and that
 it will not use this program in any manner prohibited above.
 ---------------------------------------------------------------
  

 Cite this work as:
 Gaussian 16, Revision A.03,
 M. J. Frisch, G. W. Trucks, H. B. Schlegel, G. E. Scuseria, 
 M. A. Robb, J. R. Cheeseman, G. Scalmani, V. Barone, 
 G. A. Petersson, H. Nakatsuji, X. Li, M. Caricato, A. V. Marenich, 
 J. Bloino, B. G. Janesko, R. Gomperts, B. Mennucci, H. P. Hratchian, 
 J. V. Ortiz, A. F. Izmaylov, J. L. Sonnenberg, D. Williams-Young, 
 F. Ding, F. Lipparini, F. Egidi, J. Goings, B. Peng, A. Petrone, 
 T. Henderson, D. Ranasinghe, V. G. Zakrzewski, J. Gao, N. Rega, 
 G. Zheng, W. Liang, M. Hada, M. Ehara, K. Toyota, R. Fukuda, 
 J. Hasegawa, M. Ishida, T. Nakajima, Y. Honda, O. Kitao, H. Nakai, 
 T. Vreven, K. Throssell, J. A. Montgomery, Jr., J. E. Peralta, 
 F. Ogliaro, M. J. Bearpark, J. J. Heyd, E. N. Brothers, K. N. Kudin, 
 V. N. Staroverov, T. A. Keith, R. Kobayashi, J. Normand, 
 K. Raghavachari, A. P. Rendell, J. C. Burant, S. S. Iyengar, 
 J. Tomasi, M. Cossi, J. M. Millam, M. Klene, C. Adamo, R. Cammi, 
 J. W. Ochterski, R. L. Martin, K. Morokuma, O. Farkas, 
 J. B. Foresman, and D. J. Fox, Gaussian, Inc., Wallingford CT, 2016.
 
 ******************************************
 Gaussian 16:  ES64L-G16RevA.03 25-Dec-2016
                30-Sep-2020 
 ******************************************
 %chk=PDB
 SetLPE:  input flags="-env GAUSS_SCRDIR=/tmp/168285.bcm-head.cm.cluster "
 SetLPE:    new flags="-env GAUSS_SCRDIR=/tmp/168285.bcm-head.cm.cluster -opt 'Tsnet.Node.lindarsharg: ssh'  -nodelist 'node-015.hpc.cc.spbu.ru node-017.hpc.cc.spbu.ru' -env GAUSS_MDEF=3221225472 -env GAUSS_EXEDIR="/usr/local/Gaussian/gaussian-16-A03-avx2/g16/bsd:/usr/local/Gaussian/gaussian-16-A03-avx2/g16""
 Will use up to    2 processors via Linda.
 Default route: Maxdisk=213GB Cachesize=163840
 ----------------------------------
 #P CAM-B3LYP/6-311+G** Opt SCF=XQC
 ----------------------------------
 1/4=163840,18=20,19=15,26=3,38=1/1,3;
 2/4=163840,9=110,12=2,17=6,18=5,40=1/2;
 3/4=163840,5=4,6=6,7=111,11=2,25=1,30=1,71=1,74=-40/1,2,3;
 4/4=163840/1;
 5/4=163840,5=2,8=3,13=1,38=5/2,8;
 6/4=163840,7=2,8=2,9=2,10=2,28=1/1;
 7/4=163840/1,2,3,16;
 1/4=163840,18=20,19=15,26=3/3(2);
 2/4=163840,9=110/2;
 99/4=163840/99;
 2/4=163840,9=110/2;
 3/4=163840,5=4,6=6,7=111,11=2,25=1,30=1,71=1,74=-40/1,2,3;
 4/4=163840,5=5,16=3,69=1/1;
 5/4=163840,5=2,8=3,13=1,38=5/2,8;
 7/4=163840/1,2,3,16;
 1/4=163840,18=20,19=15,26=3/3(-5);
 2/4=163840,9=110/2;
 6/4=163840,7=2,8=2,9=2,10=2,19=2,28=1/1;
 99/4=163840,9=1/99;
 Leave Link    1 at Wed Sep 30 05:10:36 2020, MaxMem=           0 cpu:               0.4 elap:               0.1
 (Enter /usr/local/Gaussian/gaussian-16-A03-avx2/g16/l101.exe)
 -------------------------
 PDB geometry optimization
 -------------------------
 Symbolic Z-matrix:
 Charge =  0 Multiplicity = 1
 C                    -0.64435  -0.64854   0. 
 C                     0.75081  -0.64854   0. 
 C                     1.44835   0.55922   0. 
 C                     0.75069   1.76772  -0.0012 
 C                    -0.64413   1.76765  -0.00168 
 C                    -1.34173   0.55944  -0.00068 
 H                    -1.19411  -1.60085   0.00045 
 H                     1.30032  -1.60105   0.00132 
 H                     1.30089   2.71987  -0.00126 
 H                    -1.19425   2.71993  -0.00263 
 Cl                   -3.10173   0.55973  -0.00097 
 Cl                    3.20835   0.55934   0.00101 
 
 ITRead=  0  0  0  0  0  0  0  0  0  0  0  0
 MicOpt= -1 -1 -1 -1 -1 -1 -1 -1 -1 -1 -1 -1
 NAtoms=     12 NQM=       12 NQMF=       0 NMMI=      0 NMMIF=      0
                NMic=       0 NMicF=      0.
                    Isotopes and Nuclear Properties:
 (Nuclear quadrupole moments (NQMom) in fm**2, nuclear magnetic moments (NMagM)
  in nuclear magnetons)

  Atom         1           2           3           4           5           6           7           8           9          10
 IAtWgt=          12          12          12          12          12          12           1           1           1           1
 AtmWgt=  12.0000000  12.0000000  12.0000000  12.0000000  12.0000000  12.0000000   1.0078250   1.0078250   1.0078250   1.0078250
 NucSpn=           0           0           0           0           0           0           1           1           1           1
 AtZEff=  -0.0000000  -0.0000000  -0.0000000  -0.0000000  -0.0000000  -0.0000000  -0.0000000  -0.0000000  -0.0000000  -0.0000000
 NQMom=    0.0000000   0.0000000   0.0000000   0.0000000   0.0000000   0.0000000   0.0000000   0.0000000   0.0000000   0.0000000
 NMagM=    0.0000000   0.0000000   0.0000000   0.0000000   0.0000000   0.0000000   2.7928460   2.7928460   2.7928460   2.7928460
 AtZNuc=   6.0000000   6.0000000   6.0000000   6.0000000   6.0000000   6.0000000   1.0000000   1.0000000   1.0000000   1.0000000

  Atom        11          12
 IAtWgt=          35          35
 AtmWgt=  34.9688527  34.9688527
 NucSpn=           3           3
 AtZEff=  -0.0000000  -0.0000000
 NQMom=   -8.1650000  -8.1650000
 NMagM=    0.8218740   0.8218740
 AtZNuc=  17.0000000  17.0000000
 Leave Link  101 at Wed Sep 30 05:10:36 2020, MaxMem=  3221225472 cpu:               1.8 elap:               0.3
 (Enter /usr/local/Gaussian/gaussian-16-A03-avx2/g16/l103.exe)

 GradGradGradGradGradGradGradGradGradGradGradGradGradGradGradGradGradGrad
 Berny optimization.
 Initialization pass.
                           ----------------------------
                           !    Initial Parameters    !
                           ! (Angstroms and Degrees)  !
 --------------------------                            --------------------------
 ! Name  Definition              Value          Derivative Info.                !
 --------------------------------------------------------------------------------
 ! R1    R(1,2)                  1.3952         estimate D2E/DX2                !
 ! R2    R(1,6)                  1.3948         estimate D2E/DX2                !
 ! R3    R(1,7)                  1.0996         estimate D2E/DX2                !
 ! R4    R(2,3)                  1.3947         estimate D2E/DX2                !
 ! R5    R(2,8)                  1.0997         estimate D2E/DX2                !
 ! R6    R(3,4)                  1.3954         estimate D2E/DX2                !
 ! R7    R(3,12)                 1.76           estimate D2E/DX2                !
 ! R8    R(4,5)                  1.3948         estimate D2E/DX2                !
 ! R9    R(4,9)                  1.0997         estimate D2E/DX2                !
 ! R10   R(5,6)                  1.3951         estimate D2E/DX2                !
 ! R11   R(5,10)                 1.0998         estimate D2E/DX2                !
 ! R12   R(6,11)                 1.76           estimate D2E/DX2                !
 ! A1    A(2,1,6)              119.9985         estimate D2E/DX2                !
 ! A2    A(2,1,7)              119.9972         estimate D2E/DX2                !
 ! A3    A(6,1,7)              120.0043         estimate D2E/DX2                !
 ! A4    A(1,2,3)              120.0086         estimate D2E/DX2                !
 ! A5    A(1,2,8)              119.9808         estimate D2E/DX2                !
 ! A6    A(3,2,8)              120.0106         estimate D2E/DX2                !
 ! A7    A(2,3,4)              119.9942         estimate D2E/DX2                !
 ! A8    A(2,3,12)             120.0128         estimate D2E/DX2                !
 ! A9    A(4,3,12)             119.993          estimate D2E/DX2                !
 ! A10   A(3,4,5)              119.994          estimate D2E/DX2                !
 ! A11   A(3,4,9)              119.9811         estimate D2E/DX2                !
 ! A12   A(5,4,9)              120.0249         estimate D2E/DX2                !
 ! A13   A(4,5,6)              120.0047         estimate D2E/DX2                !
 ! A14   A(4,5,10)             120.0113         estimate D2E/DX2                !
 ! A15   A(6,5,10)             119.984          estimate D2E/DX2                !
 ! A16   A(1,6,5)              120.0            estimate D2E/DX2                !
 ! A17   A(1,6,11)             120.008          estimate D2E/DX2                !
 ! A18   A(5,6,11)             119.992          estimate D2E/DX2                !
 ! D1    D(6,1,2,3)              0.0323         estimate D2E/DX2                !
 ! D2    D(6,1,2,8)            179.9532         estimate D2E/DX2                !
 ! D3    D(7,1,2,3)           -179.9729         estimate D2E/DX2                !
 ! D4    D(7,1,2,8)             -0.052          estimate D2E/DX2                !
 ! D5    D(2,1,6,5)              0.0149         estimate D2E/DX2                !
 ! D6    D(2,1,6,11)           179.9892         estimate D2E/DX2                !
 ! D7    D(7,1,6,5)           -179.9798         estimate D2E/DX2                !
 ! D8    D(7,1,6,11)            -0.0056         estimate D2E/DX2                !
 ! D9    D(1,2,3,4)             -0.0568         estimate D2E/DX2                !
 ! D10   D(1,2,3,12)           179.9619         estimate D2E/DX2                !
 ! D11   D(8,2,3,4)           -179.9777         estimate D2E/DX2                !
 ! D12   D(8,2,3,12)             0.041          estimate D2E/DX2                !
 ! D13   D(2,3,4,5)              0.0341         estimate D2E/DX2                !
 ! D14   D(2,3,4,9)           -179.9964         estimate D2E/DX2                !
 ! D15   D(12,3,4,5)          -179.9846         estimate D2E/DX2                !
 ! D16   D(12,3,4,9)            -0.0151         estimate D2E/DX2                !
 ! D17   D(3,4,5,6)              0.0131         estimate D2E/DX2                !
 ! D18   D(3,4,5,10)          -179.9995         estimate D2E/DX2                !
 ! D19   D(9,4,5,6)           -179.9563         estimate D2E/DX2                !
 ! D20   D(9,4,5,10)             0.0311         estimate D2E/DX2                !
 ! D21   D(4,5,6,1)             -0.0376         estimate D2E/DX2                !
 ! D22   D(4,5,6,11)           179.9881         estimate D2E/DX2                !
 ! D23   D(10,5,6,1)           179.975          estimate D2E/DX2                !
 ! D24   D(10,5,6,11)            0.0007         estimate D2E/DX2                !
 --------------------------------------------------------------------------------
 Trust Radius=3.00D-01 FncErr=1.00D-07 GrdErr=1.00D-06 EigMax=2.50D+02 EigMin=1.00D-04
 Number of steps in this run=     64 maximum allowed number of steps=    100.
 GradGradGradGradGradGradGradGradGradGradGradGradGradGradGradGradGradGrad

 Leave Link  103 at Wed Sep 30 05:10:36 2020, MaxMem=  3221225472 cpu:               0.1 elap:               0.0
 (Enter /usr/local/Gaussian/gaussian-16-A03-avx2/g16/l202.exe)
                          Input orientation:                          
 ---------------------------------------------------------------------
 Center     Atomic      Atomic             Coordinates (Angstroms)
 Number     Number       Type             X           Y           Z
 ---------------------------------------------------------------------
      1          6           0       -0.644351   -0.648536    0.000000
      2          6           0        0.750809   -0.648536    0.000000
      3          6           0        1.448347    0.559215    0.000000
      4          6           0        0.750693    1.767724   -0.001199
      5          6           0       -0.644132    1.767646   -0.001678
      6          6           0       -1.341733    0.559440   -0.000682
      7          1           0       -1.194110   -1.600853    0.000450
      8          1           0        1.300317   -1.601049    0.001315
      9          1           0        1.300893    2.719867   -0.001258
     10          1           0       -1.194254    2.719927   -0.002631
     11         17           0       -3.101733    0.559733   -0.000970
     12         17           0        3.208346    0.559343    0.001015
 ---------------------------------------------------------------------
                    Distance matrix (angstroms):
                    1          2          3          4          5
     1  C    0.000000
     2  C    1.395160   0.000000
     3  C    2.416205   1.394712   0.000000
     4  C    2.790065   2.416260   1.395427   0.000000
     5  C    2.416183   2.789946   2.416356   1.394825   0.000000
     6  C    1.394829   2.416183   2.790080   2.416236   1.395138
     7  H    1.099610   2.165553   3.412986   3.889675   3.413102
     8  H    2.165414   1.099655   2.165330   3.413316   3.889601
     9  H    3.889745   3.413024   2.165678   1.099680   2.165606
    10  H    3.413055   3.889707   3.413506   2.165528   1.099761
    11  Cl   2.738365   4.037573   4.550080   4.037379   2.738404
    12  Cl   4.037605   2.738332   1.760000   2.738659   4.037523
                    6          7          8          9         10
     6  C    0.000000
     7  H    2.165331   0.000000
     8  H    3.412938   2.494427   0.000000
     9  H    3.413344   4.989355   4.320917   0.000000
    10  H    2.165516   4.320781   4.989362   2.495147   0.000000
    11  Cl   1.760000   2.882214   4.903777   4.904008   2.881825
    12  Cl   4.550080   4.903883   2.882338   2.882056   4.904185
                   11         12
    11  Cl   0.000000
    12  Cl   6.310080   0.000000
 Stoichiometry    C6H4Cl2
 Framework group  C1[X(C6H4Cl2)]
 Deg. of freedom    30
 Full point group                 C1      NOp   1
 Largest Abelian subgroup         C1      NOp   1
 Largest concise Abelian subgroup C1      NOp   1
                         Standard orientation:                         
 ---------------------------------------------------------------------
 Center     Atomic      Atomic             Coordinates (Angstroms)
 Number     Number       Type             X           Y           Z
 ---------------------------------------------------------------------
      1          6           0        0.697557   -1.208093    0.000222
      2          6           0       -0.697602   -1.208003    0.000652
      3          6           0       -1.395062   -0.000207    0.000123
      4          6           0       -0.697330    1.208257    0.000363
      5          6           0        0.697495    1.208089    0.000412
      6          6           0        1.395018   -0.000163   -0.000055
      7          1           0        1.247255   -2.160446    0.000189
      8          1           0       -1.247173   -2.160481    0.000093
      9          1           0       -1.247468    2.160436    0.000005
     10          1           0        1.247679    2.160335    0.000609
     11         17           0        3.155018    0.000016   -0.000309
     12         17           0       -3.155062    0.000035   -0.000350
 ---------------------------------------------------------------------
 Rotational constants (GHZ):           5.6865075           0.6542027           0.5867054
 Leave Link  202 at Wed Sep 30 05:10:36 2020, MaxMem=  3221225472 cpu:               0.1 elap:               0.0
 (Enter /usr/local/Gaussian/gaussian-16-A03-avx2/g16/l301.exe)
 Standard basis: 6-311+G(d,p) (5D, 7F)
 Ernie: Thresh=  0.10000D-02 Tol=  0.10000D-05 Strict=F.
 There are   224 symmetry adapted cartesian basis functions of A   symmetry.
 There are   216 symmetry adapted basis functions of A   symmetry.
   216 basis functions,   354 primitive gaussians,   224 cartesian basis functions
    37 alpha electrons       37 beta electrons
       nuclear repulsion energy       446.0308527233 Hartrees.
 IExCor=20419 DFT=T Ex+Corr=CAM-B3LYP ExCW=0 ScaHFX=  1.000000
 ScaDFX=  1.000000  1.000000  1.000000  0.810000 ScalE2=  1.000000  1.000000
 IRadAn=      5 IRanWt=     -1 IRanGd=            0 ICorTp=0 IEmpDi=  4
 HFx  wShort=  0.000000 wLong=  0.330000 cFull=  0.190000 cShort=  0.000000 cLong=  0.460000
 DFx  wShort=  0.000000 wLong=  0.330000 cFull=  0.190000 cShort=  0.000000 cLong=  0.460000
 NAtoms=   12 NActive=   12 NUniq=   12 SFac= 1.00D+00 NAtFMM=   60 NAOKFM=F Big=F
 Integral buffers will be    131072 words long.
 Raffenetti 2 integral format.
 Two-electron integral symmetry is turned on.
 Leave Link  301 at Wed Sep 30 05:10:37 2020, MaxMem=  3221225472 cpu:               0.3 elap:               0.1
 (Enter /usr/local/Gaussian/gaussian-16-A03-avx2/g16/linda-exe/l302.exel)
 NPDir=0 NMtPBC=     1 NCelOv=     1 NCel=       1 NClECP=     1 NCelD=      1
         NCelK=      1 NCelE2=     1 NClLst=     1 CellRange=     0.0.
 One-electron integrals computed using PRISM.
 One-electron integral symmetry used in STVInt
 NBasis=   216 RedAO= T EigKep=  2.59D-06  NBF=   216
 NBsUse=   216 1.00D-06 EigRej= -1.00D+00 NBFU=   216
 Precomputing XC quadrature grid using
 IXCGrd= 4 IRadAn=           5 IRanWt=          -1 IRanGd=           0 AccXCQ= 0.00D+00.
 Generated NRdTot=       0 NPtTot=           0 NUsed=           0 NTot=          32
 NSgBfM=   221   221   221   221   221 MxSgAt=    12 MxSgA2=    12.
 Leave Link  302 at Wed Sep 30 05:10:38 2020, MaxMem=  3221225472 cpu:               1.8 elap:               0.3
 (Enter /usr/local/Gaussian/gaussian-16-A03-avx2/g16/l303.exe)
 DipDrv:  MaxL=1.
 Leave Link  303 at Wed Sep 30 05:10:38 2020, MaxMem=  3221225472 cpu:               0.2 elap:               0.1
 (Enter /usr/local/Gaussian/gaussian-16-A03-avx2/g16/linda-exe/l401.exel)
 ExpMin= 4.38D-02 ExpMax= 1.06D+05 ExpMxC= 3.62D+03 IAcc=3 IRadAn=         5 AccDes= 0.00D+00
 Harris functional with IExCor=20419 and IRadAn=       5 diagonalized for initial guess.
 HarFok:  IExCor=20419 AccDes= 0.00D+00 IRadAn=         5 IDoV= 1 UseB2=F ITyADJ=14
 ICtDFT=  3500011 ScaDFX=  1.000000  1.000000  1.000000  1.000000
 FoFCou: FMM=F IPFlag=           0 FMFlag=      100000 FMFlg1=           0
         NFxFlg=           0 DoJE=T BraDBF=F KetDBF=T FulRan=T
         wScrn=  0.000000 ICntrl=       500 IOpCl=  0 I1Cent=   200000004 NGrid=           0
         NMat0=    1 NMatS0=      1 NMatT0=    0 NMatD0=    1 NMtDS0=    0 NMtDT0=    0
 Petite list used in FoFCou.
 Harris En= -1128.66806080784    
 JPrj=0 DoOrth=F DoCkMO=F.
 Leave Link  401 at Wed Sep 30 05:10:40 2020, MaxMem=  3221225472 cpu:               5.4 elap:               1.0
 (Enter /usr/local/Gaussian/gaussian-16-A03-avx2/g16/linda-exe/l502.exel)
 Keep R1 ints in memory in canonical form, NReq=555594164.
 FoFCou: FMM=F IPFlag=           0 FMFlag=           0 FMFlg1=           0
         NFxFlg=           0 DoJE=F BraDBF=F KetDBF=F FulRan=T
         wScrn=  0.000000 ICntrl=       600 IOpCl=  0 I1Cent=           0 NGrid=           0
         NMat0=    1 NMatS0=  23436 NMatT0=    0 NMatD0=    1 NMtDS0=    0 NMtDT0=    0
 Symmetry not used in FoFCou.
 Two-electron integral symmetry not used.
 Closed shell SCF:
 Using DIIS extrapolation, IDIIS=  1040.
 NGot=  3221225472 LenX=  2671852086 LenY=  2671801469
 Requested convergence on RMS density matrix=1.00D-08 within  32 cycles.
 Requested convergence on MAX density matrix=1.00D-06.
 Requested convergence on             energy=1.00D-06.
 No special actions if energy rises.

 Cycle   1  Pass 1  IDiag  1:
 E= -1151.02669461418    
 DIIS: error= 1.62D-01 at cycle   1 NSaved=   1.
 NSaved= 1 IEnMin= 1 EnMin= -1151.02669461418     IErMin= 1 ErrMin= 1.62D-01
 ErrMax= 1.62D-01  0.00D+00 EMaxC= 1.00D-01 BMatC= 2.06D+00 BMatP= 2.06D+00
 IDIUse=3 WtCom= 0.00D+00 WtEn= 1.00D+00
 Coeff-Com:  0.100D+01
 Coeff-En:   0.100D+01
 Coeff:      0.100D+01
 Gap=     0.475 Goal=   None    Shift=    0.000
 GapD=    0.475 DampG=2.000 DampE=0.250 DampFc=0.5000 IDamp=-1.
 Damping current iteration by 5.00D-01
 RMSDP=3.03D-02 MaxDP=1.18D+00              OVMax= 2.16D-01

 Cycle   2  Pass 1  IDiag  1:
 E= -1151.22796182635     Delta-E=       -0.201267212168 Rises=F Damp=T
 DIIS: error= 6.70D-02 at cycle   2 NSaved=   2.
 NSaved= 2 IEnMin= 2 EnMin= -1151.22796182635     IErMin= 2 ErrMin= 6.70D-02
 ErrMax= 6.70D-02  0.00D+00 EMaxC= 1.00D-01 BMatC= 3.37D-01 BMatP= 2.06D+00
 IDIUse=3 WtCom= 3.30D-01 WtEn= 6.70D-01
 Coeff-Com: -0.500D+00 0.150D+01
 Coeff-En:   0.000D+00 0.100D+01
 Coeff:     -0.165D+00 0.117D+01
 Gap=     0.439 Goal=   None    Shift=    0.000
 RMSDP=1.87D-02 MaxDP=5.23D-01 DE=-2.01D-01 OVMax= 1.30D-01

 Cycle   3  Pass 1  IDiag  1:
 E= -1151.40855319533     Delta-E=       -0.180591368983 Rises=F Damp=F
 DIIS: error= 7.27D-03 at cycle   3 NSaved=   3.
 NSaved= 3 IEnMin= 3 EnMin= -1151.40855319533     IErMin= 3 ErrMin= 7.27D-03
 ErrMax= 7.27D-03  0.00D+00 EMaxC= 1.00D-01 BMatC= 8.64D-03 BMatP= 3.37D-01
 IDIUse=3 WtCom= 9.27D-01 WtEn= 7.27D-02
 Coeff-Com: -0.103D+00 0.278D+00 0.826D+00
 Coeff-En:   0.000D+00 0.000D+00 0.100D+01
 Coeff:     -0.959D-01 0.257D+00 0.839D+00
 Gap=     0.318 Goal=   None    Shift=    0.000
 RMSDP=7.24D-03 MaxDP=3.06D-01 DE=-1.81D-01 OVMax= 3.10D-02

 Cycle   4  Pass 1  IDiag  1:
 E= -1151.41555099858     Delta-E=       -0.006997803248 Rises=F Damp=F
 DIIS: error= 3.67D-03 at cycle   4 NSaved=   4.
 NSaved= 4 IEnMin= 4 EnMin= -1151.41555099858     IErMin= 4 ErrMin= 3.67D-03
 ErrMax= 3.67D-03  0.00D+00 EMaxC= 1.00D-01 BMatC= 1.61D-03 BMatP= 8.64D-03
 IDIUse=3 WtCom= 9.63D-01 WtEn= 3.67D-02
 Coeff-Com: -0.196D-01 0.492D-01 0.339D+00 0.631D+00
 Coeff-En:   0.000D+00 0.000D+00 0.722D-01 0.928D+00
 Coeff:     -0.189D-01 0.474D-01 0.330D+00 0.642D+00
 Gap=     0.312 Goal=   None    Shift=    0.000
 RMSDP=2.04D-03 MaxDP=8.94D-02 DE=-7.00D-03 OVMax= 8.04D-03

 Cycle   5  Pass 1  IDiag  1:
 E= -1151.41713371389     Delta-E=       -0.001582715307 Rises=F Damp=F
 DIIS: error= 2.26D-04 at cycle   5 NSaved=   5.
 NSaved= 5 IEnMin= 5 EnMin= -1151.41713371389     IErMin= 5 ErrMin= 2.26D-04
 ErrMax= 2.26D-04  0.00D+00 EMaxC= 1.00D-01 BMatC= 1.11D-05 BMatP= 1.61D-03
 IDIUse=3 WtCom= 9.98D-01 WtEn= 2.26D-03
 Coeff-Com:  0.585D-02-0.144D-01-0.355D-01 0.123D-01 0.103D+01
 Coeff-En:   0.000D+00 0.000D+00 0.000D+00 0.000D+00 0.100D+01
 Coeff:      0.584D-02-0.143D-01-0.354D-01 0.123D-01 0.103D+01
 Gap=     0.311 Goal=   None    Shift=    0.000
 RMSDP=8.35D-04 MaxDP=3.03D-02 DE=-1.58D-03 OVMax= 1.80D-03

 Cycle   6  Pass 1  IDiag  1:
 E= -1151.41715120974     Delta-E=       -0.000017495845 Rises=F Damp=F
 DIIS: error= 8.38D-05 at cycle   6 NSaved=   6.
 NSaved= 6 IEnMin= 6 EnMin= -1151.41715120974     IErMin= 6 ErrMin= 8.38D-05
 ErrMax= 8.38D-05  0.00D+00 EMaxC= 1.00D-01 BMatC= 3.84D-07 BMatP= 1.11D-05
 IDIUse=1 WtCom= 1.00D+00 WtEn= 0.00D+00
 Coeff-Com:  0.985D-03-0.247D-02-0.164D-01-0.252D-01 0.127D+00 0.916D+00
 Coeff:      0.985D-03-0.247D-02-0.164D-01-0.252D-01 0.127D+00 0.916D+00
 Gap=     0.311 Goal=   None    Shift=    0.000
 RMSDP=8.01D-05 MaxDP=3.55D-03 DE=-1.75D-05 OVMax= 4.84D-04

 Cycle   7  Pass 1  IDiag  1:
 E= -1151.41715179929     Delta-E=       -0.000000589559 Rises=F Damp=F
 DIIS: error= 3.52D-05 at cycle   7 NSaved=   7.
 NSaved= 7 IEnMin= 7 EnMin= -1151.41715179929     IErMin= 7 ErrMin= 3.52D-05
 ErrMax= 3.52D-05  0.00D+00 EMaxC= 1.00D-01 BMatC= 1.69D-07 BMatP= 3.84D-07
 IDIUse=1 WtCom= 1.00D+00 WtEn= 0.00D+00
 Coeff-Com:  0.446D-04-0.135D-03-0.523D-02-0.131D-01-0.560D-03 0.462D+00
 Coeff-Com:  0.557D+00
 Coeff:      0.446D-04-0.135D-03-0.523D-02-0.131D-01-0.560D-03 0.462D+00
 Coeff:      0.557D+00
 Gap=     0.311 Goal=   None    Shift=    0.000
 RMSDP=2.47D-05 MaxDP=1.21D-03 DE=-5.90D-07 OVMax= 1.05D-04

 Cycle   8  Pass 1  IDiag  1:
 E= -1151.41715196068     Delta-E=       -0.000000161387 Rises=F Damp=F
 DIIS: error= 8.33D-06 at cycle   8 NSaved=   8.
 NSaved= 8 IEnMin= 8 EnMin= -1151.41715196068     IErMin= 8 ErrMin= 8.33D-06
 ErrMax= 8.33D-06  0.00D+00 EMaxC= 1.00D-01 BMatC= 4.10D-09 BMatP= 1.69D-07
 IDIUse=1 WtCom= 1.00D+00 WtEn= 0.00D+00
 Coeff-Com: -0.904D-04 0.230D-03 0.124D-02 0.762D-03-0.177D-01-0.434D-01
 Coeff-Com:  0.751D-01 0.984D+00
 Coeff:     -0.904D-04 0.230D-03 0.124D-02 0.762D-03-0.177D-01-0.434D-01
 Coeff:      0.751D-01 0.984D+00
 Gap=     0.311 Goal=   None    Shift=    0.000
 RMSDP=5.24D-06 MaxDP=2.75D-04 DE=-1.61D-07 OVMax= 5.37D-05

 Cycle   9  Pass 1  IDiag  1:
 E= -1151.41715196935     Delta-E=       -0.000000008673 Rises=F Damp=F
 DIIS: error= 2.00D-06 at cycle   9 NSaved=   9.
 NSaved= 9 IEnMin= 9 EnMin= -1151.41715196935     IErMin= 9 ErrMin= 2.00D-06
 ErrMax= 2.00D-06  0.00D+00 EMaxC= 1.00D-01 BMatC= 3.74D-10 BMatP= 4.10D-09
 IDIUse=1 WtCom= 1.00D+00 WtEn= 0.00D+00
 Coeff-Com: -0.199D-04 0.528D-04 0.476D-03 0.608D-03-0.483D-02-0.277D-01
 Coeff-Com: -0.469D-02 0.288D+00 0.748D+00
 Coeff:     -0.199D-04 0.528D-04 0.476D-03 0.608D-03-0.483D-02-0.277D-01
 Coeff:     -0.469D-02 0.288D+00 0.748D+00
 Gap=     0.311 Goal=   None    Shift=    0.000
 RMSDP=1.66D-06 MaxDP=9.52D-05 DE=-8.67D-09 OVMax= 1.01D-05

 Cycle  10  Pass 1  IDiag  1:
 E= -1151.41715196972     Delta-E=       -0.000000000361 Rises=F Damp=F
 DIIS: error= 1.19D-06 at cycle  10 NSaved=  10.
 NSaved=10 IEnMin=10 EnMin= -1151.41715196972     IErMin=10 ErrMin= 1.19D-06
 ErrMax= 1.19D-06  0.00D+00 EMaxC= 1.00D-01 BMatC= 1.63D-10 BMatP= 3.74D-10
 IDIUse=1 WtCom= 1.00D+00 WtEn= 0.00D+00
 Coeff-Com:  0.326D-05-0.717D-05 0.653D-04 0.227D-03 0.242D-03-0.880D-02
 Coeff-Com: -0.179D-01-0.176D-03 0.429D+00 0.597D+00
 Coeff:      0.326D-05-0.717D-05 0.653D-04 0.227D-03 0.242D-03-0.880D-02
 Coeff:     -0.179D-01-0.176D-03 0.429D+00 0.597D+00
 Gap=     0.311 Goal=   None    Shift=    0.000
 RMSDP=9.53D-07 MaxDP=5.60D-05 DE=-3.61D-10 OVMax= 4.24D-06

 Cycle  11  Pass 1  IDiag  1:
 E= -1151.41715196989     Delta-E=       -0.000000000172 Rises=F Damp=F
 DIIS: error= 1.40D-07 at cycle  11 NSaved=  11.
 NSaved=11 IEnMin=11 EnMin= -1151.41715196989     IErMin=11 ErrMin= 1.40D-07
 ErrMax= 1.40D-07  0.00D+00 EMaxC= 1.00D-01 BMatC= 2.21D-12 BMatP= 1.63D-10
 IDIUse=1 WtCom= 1.00D+00 WtEn= 0.00D+00
 Coeff-Com:  0.780D-06-0.214D-05-0.976D-05 0.143D-04 0.369D-03-0.219D-03
 Coeff-Com: -0.417D-02-0.160D-01 0.419D-01 0.115D+00 0.863D+00
 Coeff:      0.780D-06-0.214D-05-0.976D-05 0.143D-04 0.369D-03-0.219D-03
 Coeff:     -0.417D-02-0.160D-01 0.419D-01 0.115D+00 0.863D+00
 Gap=     0.311 Goal=   None    Shift=    0.000
 RMSDP=2.08D-07 MaxDP=1.04D-05 DE=-1.72D-10 OVMax= 7.38D-07

 Cycle  12  Pass 1  IDiag  1:
 E= -1151.41715196990     Delta-E=       -0.000000000008 Rises=F Damp=F
 DIIS: error= 8.87D-08 at cycle  12 NSaved=  12.
 NSaved=12 IEnMin=12 EnMin= -1151.41715196990     IErMin=12 ErrMin= 8.87D-08
 ErrMax= 8.87D-08  0.00D+00 EMaxC= 1.00D-01 BMatC= 8.16D-13 BMatP= 2.21D-12
 IDIUse=1 WtCom= 1.00D+00 WtEn= 0.00D+00
 Coeff-Com:  0.231D-06-0.738D-06-0.927D-05-0.636D-05 0.188D-03 0.426D-03
 Coeff-Com: -0.125D-02-0.853D-02-0.274D-02 0.258D-01 0.472D+00 0.515D+00
 Coeff:      0.231D-06-0.738D-06-0.927D-05-0.636D-05 0.188D-03 0.426D-03
 Coeff:     -0.125D-02-0.853D-02-0.274D-02 0.258D-01 0.472D+00 0.515D+00
 Gap=     0.311 Goal=   None    Shift=    0.000
 RMSDP=6.02D-08 MaxDP=3.40D-06 DE=-7.73D-12 OVMax= 3.52D-07

 Cycle  13  Pass 1  IDiag  1:
 E= -1151.41715196990     Delta-E=       -0.000000000002 Rises=F Damp=F
 DIIS: error= 1.46D-08 at cycle  13 NSaved=  13.
 NSaved=13 IEnMin=13 EnMin= -1151.41715196990     IErMin=13 ErrMin= 1.46D-08
 ErrMax= 1.46D-08  0.00D+00 EMaxC= 1.00D-01 BMatC= 2.25D-14 BMatP= 8.16D-13
 IDIUse=1 WtCom= 1.00D+00 WtEn= 0.00D+00
 Coeff-Com:  0.186D-07-0.335D-07-0.104D-05-0.417D-05-0.104D-04 0.146D-03
 Coeff-Com:  0.287D-03 0.339D-03-0.648D-02-0.112D-01-0.248D-01 0.115D+00
 Coeff-Com:  0.926D+00
 Coeff:      0.186D-07-0.335D-07-0.104D-05-0.417D-05-0.104D-04 0.146D-03
 Coeff:      0.287D-03 0.339D-03-0.648D-02-0.112D-01-0.248D-01 0.115D+00
 Coeff:      0.926D+00
 Gap=     0.311 Goal=   None    Shift=    0.000
 RMSDP=4.29D-08 MaxDP=1.92D-06 DE=-2.05D-12 OVMax= 7.17D-08

 Cycle  14  Pass 1  IDiag  1:
 E= -1151.41715196990     Delta-E=        0.000000000003 Rises=F Damp=F
 DIIS: error= 1.78D-09 at cycle  14 NSaved=  14.
 NSaved=14 IEnMin=13 EnMin= -1151.41715196990     IErMin=14 ErrMin= 1.78D-09
 ErrMax= 1.78D-09  0.00D+00 EMaxC= 1.00D-01 BMatC= 4.99D-16 BMatP= 2.25D-14
 IDIUse=1 WtCom= 1.00D+00 WtEn= 0.00D+00
 Coeff-Com:  0.606D-08-0.550D-08 0.588D-07-0.654D-06-0.852D-05 0.139D-04
 Coeff-Com:  0.900D-04 0.365D-03-0.112D-02-0.308D-02-0.206D-01 0.382D-02
 Coeff-Com:  0.163D+00 0.857D+00
 Coeff:      0.606D-08-0.550D-08 0.588D-07-0.654D-06-0.852D-05 0.139D-04
 Coeff:      0.900D-04 0.365D-03-0.112D-02-0.308D-02-0.206D-01 0.382D-02
 Coeff:      0.163D+00 0.857D+00
 Gap=     0.311 Goal=   None    Shift=    0.000
 RMSDP=4.37D-09 MaxDP=1.91D-07 DE= 2.50D-12 OVMax= 8.68D-09

 SCF Done:  E(RCAM-B3LYP) =  -1151.41715197     A.U. after   14 cycles
            NFock= 14  Conv=0.44D-08     -V/T= 2.0027
 KE= 1.148322573457D+03 PE=-3.615551083822D+03 EE= 8.697805056720D+02
 Leave Link  502 at Wed Sep 30 05:11:11 2020, MaxMem=  3221225472 cpu:              72.8 elap:              29.3
 (Enter /usr/local/Gaussian/gaussian-16-A03-avx2/g16/linda-exe/l508.exel)
 QCSCF skips out because SCF is already converged.
 Leave Link  508 at Wed Sep 30 05:11:13 2020, MaxMem=  3221225472 cpu:               0.0 elap:               0.0
 (Enter /usr/local/Gaussian/gaussian-16-A03-avx2/g16/l601.exe)
 Copying SCF densities to generalized density rwf, IOpCl= 0 IROHF=0.

 **********************************************************************

            Population analysis using the SCF density.

 **********************************************************************

 Orbital symmetries:
       Occupied  (A) (A) (A) (A) (A) (A) (A) (A) (A) (A) (A) (A)
                 (A) (A) (A) (A) (A) (A) (A) (A) (A) (A) (A) (A)
                 (A) (A) (A) (A) (A) (A) (A) (A) (A) (A) (A) (A)
                 (A)
       Virtual   (A) (A) (A) (A) (A) (A) (A) (A) (A) (A) (A) (A)
                 (A) (A) (A) (A) (A) (A) (A) (A) (A) (A) (A) (A)
                 (A) (A) (A) (A) (A) (A) (A) (A) (A) (A) (A) (A)
                 (A) (A) (A) (A) (A) (A) (A) (A) (A) (A) (A) (A)
                 (A) (A) (A) (A) (A) (A) (A) (A) (A) (A) (A) (A)
                 (A) (A) (A) (A) (A) (A) (A) (A) (A) (A) (A) (A)
                 (A) (A) (A) (A) (A) (A) (A) (A) (A) (A) (A) (A)
                 (A) (A) (A) (A) (A) (A) (A) (A) (A) (A) (A) (A)
                 (A) (A) (A) (A) (A) (A) (A) (A) (A) (A) (A) (A)
                 (A) (A) (A) (A) (A) (A) (A) (A) (A) (A) (A) (A)
                 (A) (A) (A) (A) (A) (A) (A) (A) (A) (A) (A) (A)
                 (A) (A) (A) (A) (A) (A) (A) (A) (A) (A) (A) (A)
                 (A) (A) (A) (A) (A) (A) (A) (A) (A) (A) (A) (A)
                 (A) (A) (A) (A) (A) (A) (A) (A) (A) (A) (A) (A)
                 (A) (A) (A) (A) (A) (A) (A) (A) (A) (A) (A)
 The electronic state is 1-A.
 Alpha  occ. eigenvalues -- -101.63504-101.63503 -10.33097 -10.33094 -10.28403
 Alpha  occ. eigenvalues --  -10.28398 -10.28348 -10.28345  -9.55163  -9.55161
 Alpha  occ. eigenvalues --   -7.31746  -7.31745  -7.30731  -7.30730  -7.30708
 Alpha  occ. eigenvalues --   -7.30707  -1.00226  -0.96899  -0.91624  -0.86258
 Alpha  occ. eigenvalues --   -0.81544  -0.72092  -0.68823  -0.60447  -0.57229
 Alpha  occ. eigenvalues --   -0.55119  -0.52046  -0.51475  -0.49480  -0.45488
 Alpha  occ. eigenvalues --   -0.45134  -0.44333  -0.39387  -0.39119  -0.38925
 Alpha  occ. eigenvalues --   -0.34182  -0.31026
 Alpha virt. eigenvalues --    0.00119   0.00191   0.02405   0.03854   0.04089
 Alpha virt. eigenvalues --    0.04179   0.06552   0.07454   0.07682   0.07836
 Alpha virt. eigenvalues --    0.08774   0.09167   0.10470   0.10673   0.10829
 Alpha virt. eigenvalues --    0.13243   0.13480   0.13864   0.15207   0.15303
 Alpha virt. eigenvalues --    0.16255   0.16283   0.16774   0.18158   0.18516
 Alpha virt. eigenvalues --    0.18920   0.20461   0.21261   0.21770   0.21904
 Alpha virt. eigenvalues --    0.22716   0.23165   0.23495   0.24629   0.26189
 Alpha virt. eigenvalues --    0.26776   0.27192   0.27274   0.27352   0.31034
 Alpha virt. eigenvalues --    0.32012   0.33269   0.33361   0.34537   0.35783
 Alpha virt. eigenvalues --    0.44297   0.47695   0.49247   0.50364   0.50400
 Alpha virt. eigenvalues --    0.50610   0.51556   0.52703   0.56062   0.57640
 Alpha virt. eigenvalues --    0.57780   0.58409   0.60493   0.63415   0.63689
 Alpha virt. eigenvalues --    0.64391   0.64643   0.64902   0.70155   0.70481
 Alpha virt. eigenvalues --    0.71918   0.72411   0.75523   0.75585   0.81459
 Alpha virt. eigenvalues --    0.85901   0.86018   0.86858   0.87972   0.89560
 Alpha virt. eigenvalues --    0.90341   0.90716   0.91436   0.92218   0.92840
 Alpha virt. eigenvalues --    0.93041   0.93231   0.97017   0.99046   1.00257
 Alpha virt. eigenvalues --    1.03764   1.04330   1.04754   1.07987   1.08550
 Alpha virt. eigenvalues --    1.11975   1.17802   1.19925   1.21268   1.28434
 Alpha virt. eigenvalues --    1.28915   1.33353   1.35351   1.35612   1.47926
 Alpha virt. eigenvalues --    1.52970   1.54488   1.56227   1.60437   1.64914
 Alpha virt. eigenvalues --    1.66731   1.67149   1.70814   1.75132   1.75469
 Alpha virt. eigenvalues --    1.77979   1.81033   1.94227   1.95640   1.96452
 Alpha virt. eigenvalues --    1.96666   1.96886   1.98038   1.99419   2.09264
 Alpha virt. eigenvalues --    2.09783   2.10124   2.11430   2.22873   2.30358
 Alpha virt. eigenvalues --    2.33031   2.33085   2.36359   2.37888   2.42092
 Alpha virt. eigenvalues --    2.42938   2.48914   2.49617   2.57672   2.59666
 Alpha virt. eigenvalues --    2.66957   2.69039   2.69142   2.74505   2.75881
 Alpha virt. eigenvalues --    2.78026   2.78280   2.82053   2.83037   2.83811
 Alpha virt. eigenvalues --    2.83954   2.92097   2.92826   2.96176   3.11986
 Alpha virt. eigenvalues --    3.14563   3.17409   3.29393   3.36717   3.43377
 Alpha virt. eigenvalues --    3.51576   3.61850   3.75577   3.91417   4.00233
 Alpha virt. eigenvalues --    4.15387   4.16692   4.88052   9.82082   9.85306
 Alpha virt. eigenvalues --   23.50266  23.90368  23.97641  24.04860  24.11464
 Alpha virt. eigenvalues --   24.18857  25.87754  25.89872  26.12534  26.23832
 Alpha virt. eigenvalues --   26.60492  26.70001 215.73328 215.76865
          Condensed to atoms (all electrons):
               1          2          3          4          5          6
     1  C   14.084274   1.639551  -0.381195  -2.569372  -5.438574  -1.208142
     2  C    1.639551  14.087474  -1.216944  -5.432618  -2.566902  -0.383144
     3  C   -0.381195  -1.216944  13.380008  -1.181449  -0.387284  -4.011407
     4  C   -2.569372  -5.432618  -1.181449  14.053410   1.642356  -0.386770
     5  C   -5.438574  -2.566902  -0.387284   1.642356  14.069335  -1.192889
     6  C   -1.208142  -0.383144  -4.011407  -0.386770  -1.192889  13.384075
     7  H    0.292946  -0.042775  -0.016597  -0.015090   0.053743   0.077053
     8  H   -0.042825   0.292906   0.077152   0.053676  -0.015108  -0.016534
     9  H   -0.015112   0.053735   0.076678   0.293148  -0.042649  -0.016544
    10  H    0.053749  -0.015108  -0.016468  -0.042730   0.292935   0.076868
    11  Cl  -0.053915   0.322499  -0.150874   0.322520  -0.053334  -0.943923
    12  Cl   0.322555  -0.054094  -0.943708  -0.053435   0.322495  -0.150891
               7          8          9         10         11         12
     1  C    0.292946  -0.042825  -0.015112   0.053749  -0.053915   0.322555
     2  C   -0.042775   0.292906   0.053735  -0.015108   0.322499  -0.054094
     3  C   -0.016597   0.077152   0.076678  -0.016468  -0.150874  -0.943708
     4  C   -0.015090   0.053676   0.293148  -0.042730   0.322520  -0.053435
     5  C    0.053743  -0.015108  -0.042649   0.292935  -0.053334   0.322495
     6  C    0.077053  -0.016534  -0.016544   0.076868  -0.943923  -0.150891
     7  H    0.490949  -0.007471   0.000037  -0.000280  -0.002517   0.001624
     8  H   -0.007471   0.490969  -0.000280   0.000037   0.001625  -0.002520
     9  H    0.000037  -0.000280   0.490918  -0.007464   0.001623  -0.002493
    10  H   -0.000280   0.000037  -0.007464   0.490945  -0.002508   0.001622
    11  Cl  -0.002517   0.001625   0.001623  -0.002508  17.315666  -0.016037
    12  Cl   0.001624  -0.002520  -0.002493   0.001622  -0.016037  17.315663
 Mulliken charges:
               1
     1  C   -0.683940
     2  C   -0.684579
     3  C    0.772088
     4  C   -0.683644
     5  C   -0.684125
     6  C    0.772249
     7  H    0.168378
     8  H    0.168373
     9  H    0.168405
    10  H    0.168402
    11  Cl   0.259175
    12  Cl   0.259218
 Sum of Mulliken charges =  -0.00000
 Mulliken charges with hydrogens summed into heavy atoms:
               1
     1  C   -0.515563
     2  C   -0.516206
     3  C    0.772088
     4  C   -0.515239
     5  C   -0.515723
     6  C    0.772249
    11  Cl   0.259175
    12  Cl   0.259218
 Electronic spatial extent (au):  <R**2>=           1684.4323
 Charge=             -0.0000 electrons
 Dipole moment (field-independent basis, Debye):
    X=             -0.0001    Y=             -0.0004    Z=              0.0000  Tot=              0.0004
 Quadrupole moment (field-independent basis, Debye-Ang):
   XX=            -66.9666   YY=            -53.2566   ZZ=            -63.6988
   XY=             -0.0003   XZ=              0.0013   YZ=              0.0008
 Traceless Quadrupole moment (field-independent basis, Debye-Ang):
   XX=             -5.6593   YY=              8.0507   ZZ=             -2.3915
   XY=             -0.0003   XZ=              0.0013   YZ=              0.0008
 Octapole moment (field-independent basis, Debye-Ang**2):
  XXX=             -0.0038  YYY=             -0.0071  ZZZ=             -0.0066  XYY=              0.0004
  XXY=              0.0061  XXZ=             -0.0029  XZZ=              0.0001  YZZ=             -0.0012
  YYZ=             -0.0011  XYZ=              0.0010
 Hexadecapole moment (field-independent basis, Debye-Ang**3):
 XXXX=          -1801.7141 YYYY=           -286.0152 ZZZZ=            -75.2144 XXXY=             -0.0031
 XXXZ=              0.0112 YYYX=             -0.0032 YYYZ=              0.0054 ZZZX=              0.0025
 ZZZY=              0.0010 XXYY=           -349.7671 XXZZ=           -324.7424 YYZZ=            -73.4326
 XXYZ=              0.0018 YYXZ=              0.0072 ZZXY=              0.0001
 N-N= 4.460308527233D+02 E-N=-3.615551083749D+03  KE= 1.148322573457D+03
 No NMR shielding tensors so no spin-rotation constants.
 Leave Link  601 at Wed Sep 30 05:11:13 2020, MaxMem=  3221225472 cpu:               0.8 elap:               0.2
 (Enter /usr/local/Gaussian/gaussian-16-A03-avx2/g16/linda-exe/l701.exel)
 ... and contract with generalized density number  0.
 Compute integral first derivatives.
 Leave Link  701 at Wed Sep 30 05:11:14 2020, MaxMem=  3221225472 cpu:               1.8 elap:               0.3
 (Enter /usr/local/Gaussian/gaussian-16-A03-avx2/g16/l702.exe)
 L702 exits ... SP integral derivatives will be done elsewhere.
 Leave Link  702 at Wed Sep 30 05:11:14 2020, MaxMem=  3221225472 cpu:               0.1 elap:               0.0
 (Enter /usr/local/Gaussian/gaussian-16-A03-avx2/g16/linda-exe/l703.exel)
 Integral derivatives from FoFJK, PRISM(SPDF).
 Compute integral first derivatives, UseDBF=F ICtDFT=           0.
 Calling FoFJK, ICntrl=      2127 FMM=F ISym2X=0 I1Cent= 0 IOpClX= 0 NMat=1 NMatS=1 NMatT=0.
 FoFJK:  IHMeth= 1 ICntrl=    2127 DoSepK=T KAlg= 0 I1Cent=           0 FoldK=F
 IRaf=         1 NMat=       1 IRICut=       1 DoRegI=T DoRafI=F ISym2E= 0 IDoP0=0 IntGTp=1.
 FoFCou: FMM=F IPFlag=           0 FMFlag=      100000 FMFlg1=         800
         NFxFlg=           0 DoJE=F BraDBF=F KetDBF=F FulRan=T
         wScrn=  0.000000 ICntrl=      2527 IOpCl=  0 I1Cent=           0 NGrid=           0
         NMat0=    1 NMatS0=      1 NMatT0=    0 NMatD0=    1 NMtDS0=    0 NMtDT0=    0
 Symmetry not used in FoFCou.
 Leave Link  703 at Wed Sep 30 05:11:21 2020, MaxMem=  3221225472 cpu:              32.2 elap:               5.5
 (Enter /usr/local/Gaussian/gaussian-16-A03-avx2/g16/l716.exe)
 Dipole        =-5.17065829D-05-1.43468440D-04 5.20985246D-08
 ***** Axes restored to original set *****
 -------------------------------------------------------------------
 Center     Atomic                   Forces (Hartrees/Bohr)
 Number     Number              X              Y              Z
 -------------------------------------------------------------------
      1        6          -0.004359928   -0.003747071   -0.000017129
      2        6           0.004324150   -0.003903187    0.000129066
      3        6          -0.006977070    0.000352543   -0.000065041
      4        6           0.004655962    0.003505828    0.000041066
      5        6          -0.004552365    0.003784896    0.000021370
      6        6           0.006899177    0.000076803   -0.000059636
      7        1           0.005811003    0.010135199   -0.000000808
      8        1          -0.005801031    0.010167224   -0.000049864
      9        1          -0.005861939   -0.010157295   -0.000017987
     10        1           0.005874725   -0.010201963    0.000016707
     11       17           0.008661555   -0.000007828    0.000006939
     12       17          -0.008674240   -0.000005148   -0.000004684
 -------------------------------------------------------------------
 Cartesian Forces:  Max     0.010201963 RMS     0.005089052
 Leave Link  716 at Wed Sep 30 05:11:21 2020, MaxMem=  3221225472 cpu:               0.1 elap:               0.0
 (Enter /usr/local/Gaussian/gaussian-16-A03-avx2/g16/l103.exe)

 GradGradGradGradGradGradGradGradGradGradGradGradGradGradGradGradGradGrad
 Berny optimization.
 FormGI is forming the generalized inverse of G from B-inverse, IUseBI=4.
 Internal  Forces:  Max     0.011772528 RMS     0.004915634
 Search for a local minimum.
 Step number   1 out of a maximum of   64
 All quantities printed in internal units (Hartrees-Bohrs-Radians)
 RMS Force = .49156D-02 SwitMx=.10000D-02 MixMth= 1
 Mixed Optimization -- RFO/linear search
 Second derivative matrix not updated -- first step.
 ITU=  0
     Eigenvalues ---    0.02152   0.02153   0.02154   0.02155   0.02155
     Eigenvalues ---    0.02155   0.02155   0.02156   0.02157   0.16000
     Eigenvalues ---    0.16000   0.16000   0.16000   0.22000   0.22982
     Eigenvalues ---    0.24000   0.25000   0.25000   0.29539   0.29539
     Eigenvalues ---    0.33709   0.33718   0.33720   0.33725   0.42116
     Eigenvalues ---    0.42487   0.46412   0.46453   0.46466   0.46497
 RFO step:  Lambda=-3.56179117D-03 EMin= 2.15189825D-02
 Linear search not attempted -- first point.
 Iteration  1 RMS(Cart)=  0.01975339 RMS(Int)=  0.00004972
 Iteration  2 RMS(Cart)=  0.00007303 RMS(Int)=  0.00000107
 Iteration  3 RMS(Cart)=  0.00000000 RMS(Int)=  0.00000107
 ITry= 1 IFail=0 DXMaxC= 6.84D-02 DCOld= 1.00D+10 DXMaxT= 3.00D-01 DXLimC= 3.00D+00 Rises=F
 Variable       Old X    -DE/DX   Delta X   Delta X   Delta X     New X
                                 (Linear)    (Quad)   (Total)
    R1        2.63647  -0.00921   0.00000  -0.01968  -0.01968   2.61679
    R2        2.63584  -0.00940   0.00000  -0.02005  -0.02005   2.61579
    R3        2.07796  -0.01168   0.00000  -0.03428  -0.03428   2.04368
    R4        2.63562  -0.00931   0.00000  -0.01987  -0.01987   2.61576
    R5        2.07805  -0.01171   0.00000  -0.03435  -0.03435   2.04370
    R6        2.63697  -0.00970   0.00000  -0.02076  -0.02076   2.61622
    R7        3.32592  -0.00867   0.00000  -0.02902  -0.02902   3.29690
    R8        2.63584  -0.00912   0.00000  -0.01948  -0.01948   2.61636
    R9        2.07809  -0.01173   0.00000  -0.03442  -0.03442   2.04368
   R10        2.63643  -0.00948   0.00000  -0.02025  -0.02025   2.61618
   R11        2.07825  -0.01177   0.00000  -0.03456  -0.03456   2.04369
   R12        3.32592  -0.00866   0.00000  -0.02897  -0.02897   3.29695
    A1        2.09437  -0.00209   0.00000  -0.00854  -0.00854   2.08583
    A2        2.09435   0.00108   0.00000   0.00449   0.00449   2.09883
    A3        2.09447   0.00101   0.00000   0.00405   0.00405   2.09852
    A4        2.09455  -0.00211   0.00000  -0.00863  -0.00863   2.08591
    A5        2.09406   0.00111   0.00000   0.00467   0.00467   2.09873
    A6        2.09458   0.00099   0.00000   0.00396   0.00396   2.09854
    A7        2.09429   0.00418   0.00000   0.01714   0.01714   2.11144
    A8        2.09462  -0.00210   0.00000  -0.00860  -0.00860   2.08602
    A9        2.09427  -0.00208   0.00000  -0.00854  -0.00854   2.08573
   A10        2.09429  -0.00205   0.00000  -0.00845  -0.00845   2.08584
   A11        2.09407   0.00102   0.00000   0.00418   0.00418   2.09825
   A12        2.09483   0.00103   0.00000   0.00427   0.00427   2.09910
   A13        2.09448  -0.00208   0.00000  -0.00857  -0.00857   2.08591
   A14        2.09459   0.00106   0.00000   0.00439   0.00439   2.09898
   A15        2.09411   0.00102   0.00000   0.00418   0.00418   2.09829
   A16        2.09440   0.00415   0.00000   0.01705   0.01705   2.11144
   A17        2.09453  -0.00208   0.00000  -0.00856  -0.00856   2.08597
   A18        2.09426  -0.00206   0.00000  -0.00848  -0.00848   2.08577
    D1        0.00056  -0.00002   0.00000  -0.00063  -0.00063  -0.00006
    D2        3.14078   0.00002   0.00000   0.00075   0.00076   3.14153
    D3       -3.14112  -0.00002   0.00000  -0.00059  -0.00059   3.14148
    D4       -0.00091   0.00002   0.00000   0.00079   0.00080  -0.00011
    D5        0.00026  -0.00001   0.00000  -0.00031  -0.00031  -0.00005
    D6        3.14140   0.00001   0.00000   0.00031   0.00031  -3.14147
    D7       -3.14124  -0.00001   0.00000  -0.00035  -0.00035  -3.14159
    D8       -0.00010   0.00001   0.00000   0.00027   0.00027   0.00018
    D9       -0.00099   0.00003   0.00000   0.00109   0.00110   0.00010
   D10        3.14093   0.00002   0.00000   0.00068   0.00069  -3.14157
   D11       -3.14120  -0.00001   0.00000  -0.00029  -0.00029  -3.14149
   D12        0.00072  -0.00002   0.00000  -0.00070  -0.00070   0.00002
   D13        0.00060  -0.00002   0.00000  -0.00063  -0.00063  -0.00003
   D14       -3.14153  -0.00000   0.00000  -0.00014  -0.00014   3.14151
   D15       -3.14132  -0.00001   0.00000  -0.00022  -0.00022  -3.14154
   D16       -0.00026   0.00001   0.00000   0.00027   0.00027   0.00000
   D17        0.00023  -0.00001   0.00000  -0.00030  -0.00030  -0.00008
   D18       -3.14158   0.00000   0.00000   0.00008   0.00008  -3.14150
   D19       -3.14083  -0.00002   0.00000  -0.00079  -0.00079   3.14156
   D20        0.00054  -0.00001   0.00000  -0.00040  -0.00040   0.00014
   D21       -0.00066   0.00002   0.00000   0.00077   0.00077   0.00012
   D22        3.14138   0.00000   0.00000   0.00015   0.00015   3.14154
   D23        3.14116   0.00001   0.00000   0.00039   0.00039   3.14154
   D24        0.00001  -0.00001   0.00000  -0.00024  -0.00023  -0.00022
         Item               Value     Threshold  Converged?
 Maximum Force            0.011773     0.000450     NO 
 RMS     Force            0.004916     0.000300     NO 
 Maximum Displacement     0.068421     0.001800     NO 
 RMS     Displacement     0.019764     0.001200     NO 
 Predicted change in Energy=-1.798955D-03
 Lowest energy point so far.  Saving SCF results.
 GradGradGradGradGradGradGradGradGradGradGradGradGradGradGradGradGradGrad

 Leave Link  103 at Wed Sep 30 05:11:21 2020, MaxMem=  3221225472 cpu:               0.2 elap:               0.0
 (Enter /usr/local/Gaussian/gaussian-16-A03-avx2/g16/l202.exe)
                          Input orientation:                          
 ---------------------------------------------------------------------
 Center     Atomic      Atomic             Coordinates (Angstroms)
 Number     Number       Type             X           Y           Z
 ---------------------------------------------------------------------
      1          6           0       -0.639182   -0.645182    0.000053
      2          6           0        0.745562   -0.645211    0.000544
      3          6           0        1.427494    0.559354   -0.000061
      4          6           0        0.745583    1.764210   -0.001027
      5          6           0       -0.638935    1.764241   -0.001434
      6          6           0       -1.320975    0.559482   -0.000960
      7          1           0       -1.184089   -1.579342    0.000410
      8          1           0        1.290337   -1.579456    0.001391
      9          1           0        1.290734    2.698223   -0.001417
     10          1           0       -1.183938    2.698347   -0.002274
     11         17           0       -3.065643    0.559758   -0.001391
     12         17           0        3.172139    0.559501    0.000528
 ---------------------------------------------------------------------
                    Distance matrix (angstroms):
                    1          2          3          4          5
     1  C    0.000000
     2  C    1.384744   0.000000
     3  C    2.392082   1.384200   0.000000
     4  C    2.778983   2.409422   1.384443   0.000000
     5  C    2.409424   2.778902   2.392045   1.384518   0.000000
     6  C    1.384218   2.392042   2.748469   2.392077   1.384422
     7  H    1.081471   2.143864   3.375557   3.860437   3.387735
     8  H    2.143808   1.081477   2.143204   3.387752   3.860364
     9  H    3.860433   3.387591   2.143238   1.081467   2.143816
    10  H    3.387618   3.860358   3.375630   2.143751   1.081473
    11  Cl   2.709170   3.997154   4.493137   3.997018   2.709187
    12  Cl   3.997178   2.709172   1.744646   2.709151   3.996960
                    6          7          8          9         10
     6  C    0.000000
     7  H    2.143200   0.000000
     8  H    3.375502   2.474426   0.000000
     9  H    3.375684   4.941894   4.277680   0.000000
    10  H    2.143251   4.277690   4.941827   2.474673   0.000000
    11  Cl   1.744668   2.848860   4.852918   4.852944   2.848575
    12  Cl   4.493115   4.852976   2.848915   2.848477   4.852843
                   11         12
    11  Cl   0.000000
    12  Cl   6.237783   0.000000
 Stoichiometry    C6H4Cl2
 Framework group  C1[X(C6H4Cl2)]
 Deg. of freedom    30
 Full point group                 C1      NOp   1
 RotChk:  IX=3 Diff= 4.83D-05
 Largest Abelian subgroup         C1      NOp   1
 Largest concise Abelian subgroup C1      NOp   1
                         Standard orientation:                         
 ---------------------------------------------------------------------
 Center     Atomic      Atomic             Coordinates (Angstroms)
 Number     Number       Type             X           Y           Z
 ---------------------------------------------------------------------
      1          6           0        0.692389   -1.204757    0.000042
      2          6           0       -0.692355   -1.204733   -0.000019
      3          6           0       -1.374240   -0.000142    0.000030
      4          6           0       -0.692284    1.204689    0.000016
      5          6           0        0.692234    1.204667   -0.000006
      6          6           0        1.374229   -0.000119    0.000076
      7          1           0        1.237260   -2.138938    0.000111
      8          1           0       -1.237166   -2.138957   -0.000103
      9          1           0       -1.237399    2.138723   -0.000020
     10          1           0        1.237274    2.138753    0.000069
     11         17           0        3.118897    0.000091   -0.000035
     12         17           0       -3.118886    0.000072   -0.000018
 ---------------------------------------------------------------------
 Rotational constants (GHZ):           5.7360593           0.6695357           0.5995534
 Leave Link  202 at Wed Sep 30 05:11:21 2020, MaxMem=  3221225472 cpu:               0.0 elap:               0.0
 (Enter /usr/local/Gaussian/gaussian-16-A03-avx2/g16/l301.exe)
 Standard basis: 6-311+G(d,p) (5D, 7F)
 Ernie: Thresh=  0.10000D-02 Tol=  0.10000D-05 Strict=F.
 There are   224 symmetry adapted cartesian basis functions of A   symmetry.
 There are   216 symmetry adapted basis functions of A   symmetry.
   216 basis functions,   354 primitive gaussians,   224 cartesian basis functions
    37 alpha electrons       37 beta electrons
       nuclear repulsion energy       450.3330703925 Hartrees.
 IExCor=20419 DFT=T Ex+Corr=CAM-B3LYP ExCW=0 ScaHFX=  1.000000
 ScaDFX=  1.000000  1.000000  1.000000  0.810000 ScalE2=  1.000000  1.000000
 IRadAn=      5 IRanWt=     -1 IRanGd=            0 ICorTp=0 IEmpDi=  4
 HFx  wShort=  0.000000 wLong=  0.330000 cFull=  0.190000 cShort=  0.000000 cLong=  0.460000
 DFx  wShort=  0.000000 wLong=  0.330000 cFull=  0.190000 cShort=  0.000000 cLong=  0.460000
 NAtoms=   12 NActive=   12 NUniq=   12 SFac= 1.00D+00 NAtFMM=   60 NAOKFM=F Big=F
 Integral buffers will be    131072 words long.
 Raffenetti 2 integral format.
 Two-electron integral symmetry is turned on.
 Leave Link  301 at Wed Sep 30 05:11:21 2020, MaxMem=  3221225472 cpu:               0.3 elap:               0.1
 (Enter /usr/local/Gaussian/gaussian-16-A03-avx2/g16/linda-exe/l302.exel)
 NPDir=0 NMtPBC=     1 NCelOv=     1 NCel=       1 NClECP=     1 NCelD=      1
         NCelK=      1 NCelE2=     1 NClLst=     1 CellRange=     0.0.
 One-electron integrals computed using PRISM.
 One-electron integral symmetry used in STVInt
 NBasis=   216 RedAO= T EigKep=  2.27D-06  NBF=   216
 NBsUse=   216 1.00D-06 EigRej= -1.00D+00 NBFU=   216
 Precomputing XC quadrature grid using
 IXCGrd= 4 IRadAn=           5 IRanWt=          -1 IRanGd=           0 AccXCQ= 0.00D+00.
 Generated NRdTot=       0 NPtTot=           0 NUsed=           0 NTot=          32
 NSgBfM=   221   221   221   221   221 MxSgAt=    12 MxSgA2=    12.
 Leave Link  302 at Wed Sep 30 05:11:22 2020, MaxMem=  3221225472 cpu:               2.0 elap:               0.4
 (Enter /usr/local/Gaussian/gaussian-16-A03-avx2/g16/l303.exe)
 DipDrv:  MaxL=1.
 Leave Link  303 at Wed Sep 30 05:11:22 2020, MaxMem=  3221225472 cpu:               0.2 elap:               0.0
 (Enter /usr/local/Gaussian/gaussian-16-A03-avx2/g16/linda-exe/l401.exel)
 Initial guess from the checkpoint file:  "PDB.chk"
 B after Tr=     0.000000   -0.000000   -0.000000
         Rot=    1.000000   -0.000000   -0.000000   -0.000007 Ang=  -0.00 deg.
 Guess basis will be translated and rotated to current coordinates.
 JPrj=2 DoOrth=T DoCkMO=T.
 Generating alternative initial guess.
 ExpMin= 4.38D-02 ExpMax= 1.06D+05 ExpMxC= 3.62D+03 IAcc=2 IRadAn=         4 AccDes= 0.00D+00
 Harris functional with IExCor=20419 and IRadAn=       4 diagonalized for initial guess.
 HarFok:  IExCor=20419 AccDes= 0.00D+00 IRadAn=         4 IDoV= 1 UseB2=F ITyADJ=14
 ICtDFT=  3500011 ScaDFX=  1.000000  1.000000  1.000000  1.000000
 FoFCou: FMM=F IPFlag=           0 FMFlag=      100000 FMFlg1=           0
         NFxFlg=           0 DoJE=T BraDBF=F KetDBF=T FulRan=T
         wScrn=  0.000000 ICntrl=       500 IOpCl=  0 I1Cent=   200000004 NGrid=           0
         NMat0=    1 NMatS0=      1 NMatT0=    0 NMatD0=    1 NMtDS0=    0 NMtDT0=    0
 Petite list used in FoFCou.
 Harris En= -1128.65972850337    
 Leave Link  401 at Wed Sep 30 05:11:24 2020, MaxMem=  3221225472 cpu:               3.3 elap:               0.6
 (Enter /usr/local/Gaussian/gaussian-16-A03-avx2/g16/linda-exe/l502.exel)
 Keep R1 ints in memory in canonical form, NReq=555594164.
 FoFCou: FMM=F IPFlag=           0 FMFlag=           0 FMFlg1=           0
         NFxFlg=           0 DoJE=F BraDBF=F KetDBF=F FulRan=T
         wScrn=  0.000000 ICntrl=       600 IOpCl=  0 I1Cent=           0 NGrid=           0
         NMat0=    1 NMatS0=  23436 NMatT0=    0 NMatD0=    1 NMtDS0=    0 NMtDT0=    0
 Symmetry not used in FoFCou.
 Two-electron integral symmetry not used.
 Closed shell SCF:
 Using DIIS extrapolation, IDIIS=  1040.
 NGot=  3221225472 LenX=  2671852086 LenY=  2671801469
 Requested convergence on RMS density matrix=1.00D-08 within  32 cycles.
 Requested convergence on MAX density matrix=1.00D-06.
 Requested convergence on             energy=1.00D-06.
 No special actions if energy rises.

 Cycle   1  Pass 1  IDiag  1:
 E= -1151.41795847666    
 DIIS: error= 2.12D-03 at cycle   1 NSaved=   1.
 NSaved= 1 IEnMin= 1 EnMin= -1151.41795847666     IErMin= 1 ErrMin= 2.12D-03
 ErrMax= 2.12D-03  0.00D+00 EMaxC= 1.00D-01 BMatC= 7.99D-04 BMatP= 7.99D-04
 IDIUse=3 WtCom= 9.79D-01 WtEn= 2.12D-02
 Coeff-Com:  0.100D+01
 Coeff-En:   0.100D+01
 Coeff:      0.100D+01
 Gap=     0.521 Goal=   None    Shift=    0.000
 GapD=    0.521 DampG=2.000 DampE=1.000 DampFc=2.0000 IDamp=-1.
 RMSDP=8.28D-03 MaxDP=3.41D-01              OVMax= 1.17D-02

 Cycle   2  Pass 1  IDiag  1:
 E= -1151.41875556179     Delta-E=       -0.000797085132 Rises=F Damp=F
 DIIS: error= 6.43D-04 at cycle   2 NSaved=   2.
 NSaved= 2 IEnMin= 2 EnMin= -1151.41875556179     IErMin= 2 ErrMin= 6.43D-04
 ErrMax= 6.43D-04  0.00D+00 EMaxC= 1.00D-01 BMatC= 6.65D-05 BMatP= 7.99D-04
 IDIUse=3 WtCom= 9.94D-01 WtEn= 6.43D-03
 Coeff-Com:  0.110D+00 0.890D+00
 Coeff-En:   0.000D+00 0.100D+01
 Coeff:      0.109D+00 0.891D+00
 Gap=     0.312 Goal=   None    Shift=    0.000
 RMSDP=3.01D-03 MaxDP=1.34D-01 DE=-7.97D-04 OVMax= 3.11D-03

 Cycle   3  Pass 1  IDiag  1:
 E= -1151.41879890603     Delta-E=       -0.000043344237 Rises=F Damp=F
 DIIS: error= 5.73D-04 at cycle   3 NSaved=   3.
 NSaved= 3 IEnMin= 3 EnMin= -1151.41879890603     IErMin= 3 ErrMin= 5.73D-04
 ErrMax= 5.73D-04  0.00D+00 EMaxC= 1.00D-01 BMatC= 3.29D-05 BMatP= 6.65D-05
 IDIUse=3 WtCom= 9.94D-01 WtEn= 5.73D-03
 Coeff-Com: -0.155D-01 0.404D+00 0.612D+00
 Coeff-En:   0.000D+00 0.247D+00 0.753D+00
 Coeff:     -0.154D-01 0.403D+00 0.612D+00
 Gap=     0.312 Goal=   None    Shift=    0.000
 RMSDP=4.01D-04 MaxDP=1.91D-02 DE=-4.33D-05 OVMax= 1.56D-03

 Cycle   4  Pass 1  IDiag  1:
 E= -1151.41883233001     Delta-E=       -0.000033423984 Rises=F Damp=F
 DIIS: error= 1.18D-04 at cycle   4 NSaved=   4.
 NSaved= 4 IEnMin= 4 EnMin= -1151.41883233001     IErMin= 4 ErrMin= 1.18D-04
 ErrMax= 1.18D-04  0.00D+00 EMaxC= 1.00D-01 BMatC= 1.70D-06 BMatP= 3.29D-05
 IDIUse=3 WtCom= 9.99D-01 WtEn= 1.18D-03
 Coeff-Com: -0.122D-01 0.117D+00 0.250D+00 0.646D+00
 Coeff-En:   0.000D+00 0.000D+00 0.000D+00 0.100D+01
 Coeff:     -0.122D-01 0.116D+00 0.249D+00 0.646D+00
 Gap=     0.312 Goal=   None    Shift=    0.000
 RMSDP=9.44D-05 MaxDP=4.08D-03 DE=-3.34D-05 OVMax= 2.97D-04

 Cycle   5  Pass 1  IDiag  1:
 E= -1151.41883379408     Delta-E=       -0.000001464071 Rises=F Damp=F
 DIIS: error= 1.92D-05 at cycle   5 NSaved=   5.
 NSaved= 5 IEnMin= 5 EnMin= -1151.41883379408     IErMin= 5 ErrMin= 1.92D-05
 ErrMax= 1.92D-05  0.00D+00 EMaxC= 1.00D-01 BMatC= 5.61D-08 BMatP= 1.70D-06
 IDIUse=1 WtCom= 1.00D+00 WtEn= 0.00D+00
 Coeff-Com: -0.166D-02-0.105D-01 0.150D-02 0.130D+00 0.880D+00
 Coeff:     -0.166D-02-0.105D-01 0.150D-02 0.130D+00 0.880D+00
 Gap=     0.312 Goal=   None    Shift=    0.000
 RMSDP=4.04D-05 MaxDP=1.56D-03 DE=-1.46D-06 OVMax= 7.10D-05

 Cycle   6  Pass 1  IDiag  1:
 E= -1151.41883385255     Delta-E=       -0.000000058472 Rises=F Damp=F
 DIIS: error= 8.99D-06 at cycle   6 NSaved=   6.
 NSaved= 6 IEnMin= 6 EnMin= -1151.41883385255     IErMin= 6 ErrMin= 8.99D-06
 ErrMax= 8.99D-06  0.00D+00 EMaxC= 1.00D-01 BMatC= 8.01D-09 BMatP= 5.61D-08
 IDIUse=1 WtCom= 1.00D+00 WtEn= 0.00D+00
 Coeff-Com: -0.212D-04-0.104D-01-0.124D-01 0.166D-01 0.327D+00 0.679D+00
 Coeff:     -0.212D-04-0.104D-01-0.124D-01 0.166D-01 0.327D+00 0.679D+00
 Gap=     0.312 Goal=   None    Shift=    0.000
 RMSDP=6.60D-06 MaxDP=3.06D-04 DE=-5.85D-08 OVMax= 3.00D-05

 Cycle   7  Pass 1  IDiag  1:
 E= -1151.41883386018     Delta-E=       -0.000000007629 Rises=F Damp=F
 DIIS: error= 2.01D-06 at cycle   7 NSaved=   7.
 NSaved= 7 IEnMin= 7 EnMin= -1151.41883386018     IErMin= 7 ErrMin= 2.01D-06
 ErrMax= 2.01D-06  0.00D+00 EMaxC= 1.00D-01 BMatC= 6.78D-10 BMatP= 8.01D-09
 IDIUse=1 WtCom= 1.00D+00 WtEn= 0.00D+00
 Coeff-Com:  0.144D-03-0.294D-02-0.463D-02-0.444D-02 0.359D-01 0.248D+00
 Coeff-Com:  0.728D+00
 Coeff:      0.144D-03-0.294D-02-0.463D-02-0.444D-02 0.359D-01 0.248D+00
 Coeff:      0.728D+00
 Gap=     0.312 Goal=   None    Shift=    0.000
 RMSDP=3.68D-06 MaxDP=1.74D-04 DE=-7.63D-09 OVMax= 6.77D-06

 Cycle   8  Pass 1  IDiag  1:
 E= -1151.41883386089     Delta-E=       -0.000000000706 Rises=F Damp=F
 DIIS: error= 4.54D-07 at cycle   8 NSaved=   8.
 NSaved= 8 IEnMin= 8 EnMin= -1151.41883386089     IErMin= 8 ErrMin= 4.54D-07
 ErrMax= 4.54D-07  0.00D+00 EMaxC= 1.00D-01 BMatC= 1.54D-11 BMatP= 6.78D-10
 IDIUse=1 WtCom= 1.00D+00 WtEn= 0.00D+00
 Coeff-Com:  0.200D-04 0.221D-03 0.190D-03-0.125D-02-0.160D-01-0.823D-02
 Coeff-Com:  0.986D-01 0.926D+00
 Coeff:      0.200D-04 0.221D-03 0.190D-03-0.125D-02-0.160D-01-0.823D-02
 Coeff:      0.986D-01 0.926D+00
 Gap=     0.312 Goal=   None    Shift=    0.000
 RMSDP=1.03D-06 MaxDP=4.82D-05 DE=-7.06D-10 OVMax= 2.81D-06

 Cycle   9  Pass 1  IDiag  1:
 E= -1151.41883386091     Delta-E=       -0.000000000025 Rises=F Damp=F
 DIIS: error= 3.26D-07 at cycle   9 NSaved=   9.
 NSaved= 9 IEnMin= 9 EnMin= -1151.41883386091     IErMin= 9 ErrMin= 3.26D-07
 ErrMax= 3.26D-07  0.00D+00 EMaxC= 1.00D-01 BMatC= 6.54D-12 BMatP= 1.54D-11
 IDIUse=1 WtCom= 1.00D+00 WtEn= 0.00D+00
 Coeff-Com:  0.352D-05 0.267D-03 0.333D-03-0.500D-03-0.102D-01-0.170D-01
 Coeff-Com:  0.116D-01 0.484D+00 0.532D+00
 Coeff:      0.352D-05 0.267D-03 0.333D-03-0.500D-03-0.102D-01-0.170D-01
 Coeff:      0.116D-01 0.484D+00 0.532D+00
 Gap=     0.312 Goal=   None    Shift=    0.000
 RMSDP=1.62D-07 MaxDP=8.33D-06 DE=-2.55D-11 OVMax= 1.15D-06

 Cycle  10  Pass 1  IDiag  1:
 E= -1151.41883386092     Delta-E=       -0.000000000006 Rises=F Damp=F
 DIIS: error= 7.96D-08 at cycle  10 NSaved=  10.
 NSaved=10 IEnMin=10 EnMin= -1151.41883386092     IErMin=10 ErrMin= 7.96D-08
 ErrMax= 7.96D-08  0.00D+00 EMaxC= 1.00D-01 BMatC= 4.40D-13 BMatP= 6.54D-12
 IDIUse=1 WtCom= 1.00D+00 WtEn= 0.00D+00
 Coeff-Com: -0.214D-05 0.511D-04 0.723D-04-0.131D-04-0.517D-03-0.393D-02
 Coeff-Com: -0.152D-01-0.417D-02 0.182D+00 0.842D+00
 Coeff:     -0.214D-05 0.511D-04 0.723D-04-0.131D-04-0.517D-03-0.393D-02
 Coeff:     -0.152D-01-0.417D-02 0.182D+00 0.842D+00
 Gap=     0.312 Goal=   None    Shift=    0.000
 RMSDP=5.93D-08 MaxDP=2.71D-06 DE=-5.91D-12 OVMax= 5.18D-07

 Cycle  11  Pass 1  IDiag  1:
 E= -1151.41883386092     Delta-E=       -0.000000000001 Rises=F Damp=F
 DIIS: error= 3.81D-08 at cycle  11 NSaved=  11.
 NSaved=11 IEnMin=11 EnMin= -1151.41883386092     IErMin=11 ErrMin= 3.81D-08
 ErrMax= 3.81D-08  0.00D+00 EMaxC= 1.00D-01 BMatC= 3.08D-14 BMatP= 4.40D-13
 IDIUse=1 WtCom= 1.00D+00 WtEn= 0.00D+00
 Coeff-Com: -0.105D-05-0.172D-04-0.190D-04 0.704D-04 0.999D-03 0.128D-02
 Coeff-Com: -0.350D-02-0.530D-01-0.285D-01 0.130D+00 0.953D+00
 Coeff:     -0.105D-05-0.172D-04-0.190D-04 0.704D-04 0.999D-03 0.128D-02
 Coeff:     -0.350D-02-0.530D-01-0.285D-01 0.130D+00 0.953D+00
 Gap=     0.312 Goal=   None    Shift=    0.000
 RMSDP=2.39D-08 MaxDP=1.16D-06 DE=-1.36D-12 OVMax= 2.91D-07

 Cycle  12  Pass 1  IDiag  1:
 E= -1151.41883386093     Delta-E=       -0.000000000003 Rises=F Damp=F
 DIIS: error= 1.63D-08 at cycle  12 NSaved=  12.
 NSaved=12 IEnMin=12 EnMin= -1151.41883386093     IErMin=12 ErrMin= 1.63D-08
 ErrMax= 1.63D-08  0.00D+00 EMaxC= 1.00D-01 BMatC= 5.24D-15 BMatP= 3.08D-14
 IDIUse=1 WtCom= 1.00D+00 WtEn= 0.00D+00
 Coeff-Com:  0.897D-07-0.102D-04-0.130D-04 0.203D-04 0.245D-03 0.700D-03
 Coeff-Com:  0.115D-02-0.100D-01-0.270D-01-0.754D-01 0.184D+00 0.927D+00
 Coeff:      0.897D-07-0.102D-04-0.130D-04 0.203D-04 0.245D-03 0.700D-03
 Coeff:      0.115D-02-0.100D-01-0.270D-01-0.754D-01 0.184D+00 0.927D+00
 Gap=     0.312 Goal=   None    Shift=    0.000
 RMSDP=7.67D-09 MaxDP=5.32D-07 DE=-3.18D-12 OVMax= 1.50D-07

 SCF Done:  E(RCAM-B3LYP) =  -1151.41883386     A.U. after   12 cycles
            NFock= 12  Conv=0.77D-08     -V/T= 2.0024
 KE= 1.148646573362D+03 PE=-3.624443901810D+03 EE= 8.740454241951D+02
 Leave Link  502 at Wed Sep 30 05:11:52 2020, MaxMem=  3221225472 cpu:              65.6 elap:              27.7
 (Enter /usr/local/Gaussian/gaussian-16-A03-avx2/g16/linda-exe/l508.exel)
 QCSCF skips out because SCF is already converged.
 Leave Link  508 at Wed Sep 30 05:11:53 2020, MaxMem=  3221225472 cpu:               0.0 elap:               0.0
 (Enter /usr/local/Gaussian/gaussian-16-A03-avx2/g16/linda-exe/l701.exel)
 ... and contract with generalized density number  0.
 Compute integral first derivatives.
 Leave Link  701 at Wed Sep 30 05:11:54 2020, MaxMem=  3221225472 cpu:               1.1 elap:               0.2
 (Enter /usr/local/Gaussian/gaussian-16-A03-avx2/g16/l702.exe)
 L702 exits ... SP integral derivatives will be done elsewhere.
 Leave Link  702 at Wed Sep 30 05:11:54 2020, MaxMem=  3221225472 cpu:               0.1 elap:               0.0
 (Enter /usr/local/Gaussian/gaussian-16-A03-avx2/g16/linda-exe/l703.exel)
 Integral derivatives from FoFJK, PRISM(SPDF).
 Compute integral first derivatives, UseDBF=F ICtDFT=           0.
 Calling FoFJK, ICntrl=      2127 FMM=F ISym2X=0 I1Cent= 0 IOpClX= 0 NMat=1 NMatS=1 NMatT=0.
 FoFJK:  IHMeth= 1 ICntrl=    2127 DoSepK=T KAlg= 0 I1Cent=           0 FoldK=F
 IRaf=         1 NMat=       1 IRICut=       1 DoRegI=T DoRafI=F ISym2E= 0 IDoP0=0 IntGTp=1.
 FoFCou: FMM=F IPFlag=           0 FMFlag=      100000 FMFlg1=         800
         NFxFlg=           0 DoJE=F BraDBF=F KetDBF=F FulRan=T
         wScrn=  0.000000 ICntrl=      2527 IOpCl=  0 I1Cent=           0 NGrid=           0
         NMat0=    1 NMatS0=      1 NMatT0=    0 NMatD0=    1 NMtDS0=    0 NMtDT0=    0
 Symmetry not used in FoFCou.
 Leave Link  703 at Wed Sep 30 05:12:01 2020, MaxMem=  3221225472 cpu:              32.0 elap:               5.4
 (Enter /usr/local/Gaussian/gaussian-16-A03-avx2/g16/l716.exe)
 Dipole        =-4.06859495D-05-1.11586156D-04 1.45080377D-05
 ***** Axes restored to original set *****
 -------------------------------------------------------------------
 Center     Atomic                   Forces (Hartrees/Bohr)
 Number     Number              X              Y              Z
 -------------------------------------------------------------------
      1        6          -0.001130441   -0.000869862   -0.000004683
      2        6           0.001128338   -0.000912967   -0.000003912
      3        6           0.000935716    0.000111241    0.000009885
      4        6           0.001293868    0.000770246    0.000001789
      5        6          -0.001289489    0.000813938   -0.000017073
      6        6          -0.000945897    0.000080361    0.000014408
      7        1          -0.000357448   -0.000065333    0.000004108
      8        1           0.000362678   -0.000058970   -0.000002607
      9        1           0.000341885    0.000077914   -0.000001783
     10        1          -0.000349086    0.000070788    0.000005668
     11       17          -0.000486450   -0.000005716   -0.000005095
     12       17           0.000496326   -0.000011641   -0.000000707
 -------------------------------------------------------------------
 Cartesian Forces:  Max     0.001293868 RMS     0.000565777
 Leave Link  716 at Wed Sep 30 05:12:01 2020, MaxMem=  3221225472 cpu:               0.1 elap:               0.0
 (Enter /usr/local/Gaussian/gaussian-16-A03-avx2/g16/l103.exe)

 GradGradGradGradGradGradGradGradGradGradGradGradGradGradGradGradGradGrad
 Berny optimization.
 Using GEDIIS/GDIIS optimizer.
 FormGI is forming the generalized inverse of G from B-inverse, IUseBI=4.
 Internal  Forces:  Max     0.002330340 RMS     0.000561028
 Search for a local minimum.
 Step number   2 out of a maximum of   64
 All quantities printed in internal units (Hartrees-Bohrs-Radians)
 RMS Force = .56103D-03 SwitMx=.10000D-02 MixMth= 2
 Mixed Optimization -- En-DIIS/RFO-DIIS
 Update second derivatives using D2CorX and points    1    2
 DE= -1.68D-03 DEPred=-1.80D-03 R= 9.35D-01
 TightC=F SS=  1.41D+00  RLast= 1.01D-01 DXNew= 5.0454D-01 3.0212D-01
 Trust test= 9.35D-01 RLast= 1.01D-01 DXMaxT set to 3.02D-01
 ITU=  1  0
 Use linear search instead of GDIIS.
     Eigenvalues ---    0.02152   0.02153   0.02154   0.02155   0.02155
     Eigenvalues ---    0.02155   0.02155   0.02156   0.02157   0.15983
     Eigenvalues ---    0.16000   0.16000   0.16000   0.22000   0.22991
     Eigenvalues ---    0.23959   0.25000   0.25000   0.29539   0.29701
     Eigenvalues ---    0.33257   0.33712   0.33719   0.33723   0.42131
     Eigenvalues ---    0.42370   0.46292   0.46455   0.46462   0.50944
 RFO step:  Lambda=-1.98867515D-05 EMin= 2.15189194D-02
 Quartic linear search produced a step of -0.06290.
 Iteration  1 RMS(Cart)=  0.00197255 RMS(Int)=  0.00000072
 Iteration  2 RMS(Cart)=  0.00000074 RMS(Int)=  0.00000007
 ITry= 1 IFail=0 DXMaxC= 5.29D-03 DCOld= 1.00D+10 DXMaxT= 3.02D-01 DXLimC= 3.00D+00 Rises=F
 Variable       Old X    -DE/DX   Delta X   Delta X   Delta X     New X
                                 (Linear)    (Quad)   (Total)
    R1        2.61679   0.00223   0.00124   0.00310   0.00434   2.62113
    R2        2.61579   0.00119   0.00126   0.00098   0.00224   2.61803
    R3        2.04368   0.00024   0.00216  -0.00180   0.00036   2.04404
    R4        2.61576   0.00120   0.00125   0.00101   0.00226   2.61802
    R5        2.04370   0.00023   0.00216  -0.00181   0.00035   2.04405
    R6        2.61622   0.00109   0.00131   0.00074   0.00204   2.61826
    R7        3.29690   0.00050   0.00183  -0.00052   0.00131   3.29821
    R8        2.61636   0.00233   0.00123   0.00332   0.00454   2.62090
    R9        2.04368   0.00024   0.00216  -0.00180   0.00037   2.04404
   R10        2.61618   0.00110   0.00127   0.00079   0.00206   2.61824
   R11        2.04369   0.00024   0.00217  -0.00182   0.00036   2.04404
   R12        3.29695   0.00049   0.00182  -0.00055   0.00128   3.29822
    A1        2.08583   0.00005   0.00054  -0.00043   0.00010   2.08594
    A2        2.09883   0.00026  -0.00028   0.00188   0.00160   2.10043
    A3        2.09852  -0.00031  -0.00025  -0.00145  -0.00171   2.09681
    A4        2.08591   0.00003   0.00054  -0.00050   0.00004   2.08595
    A5        2.09873   0.00027  -0.00029   0.00198   0.00168   2.10041
    A6        2.09854  -0.00031  -0.00025  -0.00147  -0.00172   2.09682
    A7        2.11144  -0.00008  -0.00108   0.00094  -0.00014   2.11129
    A8        2.08602   0.00002   0.00054  -0.00054  -0.00000   2.08602
    A9        2.08573   0.00006   0.00054  -0.00039   0.00014   2.08588
   A10        2.08584   0.00005   0.00053  -0.00043   0.00010   2.08594
   A11        2.09825  -0.00029  -0.00026  -0.00132  -0.00158   2.09667
   A12        2.09910   0.00024  -0.00027   0.00175   0.00148   2.10058
   A13        2.08591   0.00003   0.00054  -0.00050   0.00004   2.08595
   A14        2.09898   0.00026  -0.00028   0.00185   0.00157   2.10055
   A15        2.09829  -0.00029  -0.00026  -0.00135  -0.00161   2.09668
   A16        2.11144  -0.00008  -0.00107   0.00093  -0.00014   2.11130
   A17        2.08597   0.00003   0.00054  -0.00050   0.00004   2.08601
   A18        2.08577   0.00005   0.00053  -0.00043   0.00011   2.08588
    D1       -0.00006   0.00000   0.00004   0.00001   0.00004  -0.00002
    D2        3.14153   0.00000  -0.00005   0.00013   0.00009  -3.14157
    D3        3.14148   0.00000   0.00004   0.00004   0.00008   3.14156
    D4       -0.00011   0.00000  -0.00005   0.00017   0.00012   0.00001
    D5       -0.00005   0.00000   0.00002   0.00004   0.00006   0.00001
    D6       -3.14147  -0.00000  -0.00002  -0.00011  -0.00013   3.14159
    D7       -3.14159   0.00000   0.00002   0.00000   0.00003  -3.14156
    D8        0.00018  -0.00000  -0.00002  -0.00015  -0.00016   0.00001
    D9        0.00010  -0.00000  -0.00007  -0.00002  -0.00009   0.00002
   D10       -3.14157  -0.00000  -0.00004   0.00007   0.00002  -3.14155
   D11       -3.14149  -0.00000   0.00002  -0.00015  -0.00013   3.14156
   D12        0.00002   0.00000   0.00004  -0.00006  -0.00002  -0.00000
   D13       -0.00003   0.00000   0.00004  -0.00002   0.00002  -0.00001
   D14        3.14151   0.00000   0.00001   0.00009   0.00010  -3.14158
   D15       -3.14154  -0.00000   0.00001  -0.00010  -0.00009   3.14156
   D16        0.00000  -0.00000  -0.00002   0.00000  -0.00002  -0.00001
   D17       -0.00008   0.00000   0.00002   0.00006   0.00008   0.00001
   D18       -3.14150  -0.00000  -0.00001  -0.00007  -0.00008  -3.14158
   D19        3.14156   0.00000   0.00005  -0.00004   0.00001   3.14157
   D20        0.00014  -0.00000   0.00003  -0.00017  -0.00015  -0.00001
   D21        0.00012  -0.00000  -0.00005  -0.00008  -0.00012  -0.00001
   D22        3.14154   0.00000  -0.00001   0.00008   0.00007  -3.14158
   D23        3.14154   0.00000  -0.00002   0.00006   0.00003   3.14157
   D24       -0.00022   0.00001   0.00001   0.00021   0.00022   0.00000
         Item               Value     Threshold  Converged?
 Maximum Force            0.002330     0.000450     NO 
 RMS     Force            0.000561     0.000300     NO 
 Maximum Displacement     0.005285     0.001800     NO 
 RMS     Displacement     0.001972     0.001200     NO 
 Predicted change in Energy=-1.790904D-05
 Lowest energy point so far.  Saving SCF results.
 GradGradGradGradGradGradGradGradGradGradGradGradGradGradGradGradGradGrad

 Leave Link  103 at Wed Sep 30 05:12:01 2020, MaxMem=  3221225472 cpu:               0.1 elap:               0.0
 (Enter /usr/local/Gaussian/gaussian-16-A03-avx2/g16/l202.exe)
                          Input orientation:                          
 ---------------------------------------------------------------------
 Center     Atomic      Atomic             Coordinates (Angstroms)
 Number     Number       Type             X           Y           Z
 ---------------------------------------------------------------------
      1          6           0       -0.640324   -0.646117    0.000087
      2          6           0        0.746718   -0.646180    0.000550
      3          6           0        1.429315    0.559382   -0.000008
      4          6           0        0.746778    1.765125   -0.001003
      5          6           0       -0.640145    1.765190   -0.001458
      6          6           0       -1.322798    0.559524   -0.000905
      7          1           0       -1.186844   -1.579553    0.000480
      8          1           0        1.293134   -1.579680    0.001299
      9          1           0        1.293432    2.698484   -0.001443
     10          1           0       -1.186690    2.698614   -0.002249
     11         17           0       -3.068142    0.559722   -0.001496
     12         17           0        3.174653    0.559416    0.000509
 ---------------------------------------------------------------------
                    Distance matrix (angstroms):
                    1          2          3          4          5
     1  C    0.000000
     2  C    1.387042   0.000000
     3  C    2.395127   1.385395   0.000000
     4  C    2.781751   2.411306   1.385523   0.000000
     5  C    2.411307   2.781743   2.395128   1.386923   0.000000
     6  C    1.385403   2.395124   2.752114   2.395124   1.385513
     7  H    1.081660   2.147056   3.379251   3.863388   3.389128
     8  H    2.147045   1.081662   2.143393   3.389134   3.863383
     9  H    3.863388   3.389052   2.143413   1.081660   2.147035
    10  H    3.389062   3.863382   3.379319   2.147022   1.081662
    11  Cl   2.710783   4.000919   4.497457   4.000826   2.710779
    12  Cl   4.000920   2.710781   1.745338   2.710777   4.000822
                    6          7          8          9         10
     6  C    0.000000
     7  H    2.143393   0.000000
     8  H    3.379245   2.479978   0.000000
     9  H    3.379321   4.945035   4.278164   0.000000
    10  H    2.143416   4.278167   4.945031   2.480123   0.000000
    11  Cl   1.745344   2.848820   4.857754   4.857739   2.848635
    12  Cl   4.497451   4.857762   2.848833   2.848614   4.857724
                   11         12
    11  Cl   0.000000
    12  Cl   6.242795   0.000000
 Stoichiometry    C6H4Cl2
 Framework group  C1[X(C6H4Cl2)]
 Deg. of freedom    30
 Full point group                 C1      NOp   1
 RotChk:  IX=1 Diff= 2.28D-05
 Largest Abelian subgroup         C1      NOp   1
 Largest concise Abelian subgroup C1      NOp   1
                         Standard orientation:                         
 ---------------------------------------------------------------------
 Center     Atomic      Atomic             Coordinates (Angstroms)
 Number     Number       Type             X           Y           Z
 ---------------------------------------------------------------------
      1          6           0        0.693522   -1.205674   -0.000012
      2          6           0       -0.693520   -1.205670   -0.000028
      3          6           0       -1.376059   -0.000074   -0.000023
      4          6           0       -0.693463    1.205635   -0.000022
      5          6           0        0.693460    1.205633   -0.000013
      6          6           0        1.376055   -0.000067   -0.000013
      7          1           0        1.239996   -2.139137    0.000018
      8          1           0       -1.239982   -2.139144   -0.000003
      9          1           0       -1.240071    2.139021   -0.000004
     10          1           0        1.240052    2.139030    0.000004
     11         17           0        3.121398    0.000046    0.000017
     12         17           0       -3.121396    0.000045    0.000021
[...]
 Alpha virt. eigenvalues --    0.36766   0.38296   0.38496   0.38806   0.46428
 Alpha virt. eigenvalues --    0.46731   0.47423   0.47712   0.48085   0.49167
 Alpha virt. eigenvalues --    0.49577   0.50178   0.50190   0.50612   0.50622
 Alpha virt. eigenvalues --    0.50773   0.50813   0.52514   0.52954   0.53081
 Alpha virt. eigenvalues --    0.53290   0.54880   0.55788   0.57949   0.58939
 Alpha virt. eigenvalues --    0.59816   0.60348   0.61157   0.62710   0.63196
 Alpha virt. eigenvalues --    0.63791   0.64636   0.64761   0.65442   0.66037
 Alpha virt. eigenvalues --    0.66732   0.68081   0.69027   0.69101   0.70222
 Alpha virt. eigenvalues --    0.70302   0.71541   0.71582   0.73187   0.73336
 Alpha virt. eigenvalues --    0.73412   0.73703   0.74672   0.76151   0.77373
 Alpha virt. eigenvalues --    0.77572   0.78598   0.79056   0.80729   0.84118
 Alpha virt. eigenvalues --    0.87041   0.87538   0.88758   0.89115   0.89214
 Alpha virt. eigenvalues --    0.89736   0.90024   0.90524   0.90572   0.91263
 Alpha virt. eigenvalues --    0.91726   0.91754   0.92344   0.92650   0.92953
 Alpha virt. eigenvalues --    0.93150   0.93267   0.93742   0.94564   0.95108
 Alpha virt. eigenvalues --    0.95381   0.96211   0.97625   0.97648   0.98176
 Alpha virt. eigenvalues --    1.00063   1.00632   1.00794   1.00967   1.01303
 Alpha virt. eigenvalues --    1.01532   1.02175   1.02547   1.02717   1.04113
 Alpha virt. eigenvalues --    1.05291   1.08158   1.09271   1.12090   1.12856
 Alpha virt. eigenvalues --    1.14673   1.15535   1.15707   1.16012   1.19042
 Alpha virt. eigenvalues --    1.19407   1.23564   1.27331   1.28132   1.29104
 Alpha virt. eigenvalues --    1.29810   1.30386   1.30640   1.30783   1.34361
 Alpha virt. eigenvalues --    1.34678   1.36158   1.37460   1.38480   1.39561
 Alpha virt. eigenvalues --    1.39839   1.42111   1.47305   1.50858   1.54688
 Alpha virt. eigenvalues --    1.55957   1.56412   1.60242   1.62324   1.63214
 Alpha virt. eigenvalues --    1.64246   1.64443   1.65578   1.66347   1.67342
 Alpha virt. eigenvalues --    1.69287   1.72295   1.73311   1.75563   1.76471
 Alpha virt. eigenvalues --    1.78617   1.83748   1.85684   1.87221   1.89298
 Alpha virt. eigenvalues --    1.89596   1.93609   1.95514   1.96530   1.97328
 Alpha virt. eigenvalues --    1.98229   1.98413   1.99543   2.00630   2.01707
 Alpha virt. eigenvalues --    2.03030   2.04876   2.05752   2.07227   2.09178
 Alpha virt. eigenvalues --    2.12039   2.12949   2.14137   2.17615   2.20506
 Alpha virt. eigenvalues --    2.26017   2.29159   2.29580   2.32293   2.32578
 Alpha virt. eigenvalues --    2.32905   2.33508   2.34181   2.36439   2.37155
 Alpha virt. eigenvalues --    2.38274   2.38584   2.39412   2.39795   2.46706
 Alpha virt. eigenvalues --    2.47792   2.47928   2.50817   2.51937   2.55785
 Alpha virt. eigenvalues --    2.57571   2.58423   2.60085   2.60859   2.62086
 Alpha virt. eigenvalues --    2.62737   2.68275   2.69324   2.70368   2.70412
 Alpha virt. eigenvalues --    2.71822   2.76835   2.77896   2.78751   2.80188
 Alpha virt. eigenvalues --    2.80360   2.83072   2.83942   2.83988   2.84166
 Alpha virt. eigenvalues --    2.85270   2.86406   2.91301   2.91684   2.91769
 Alpha virt. eigenvalues --    2.97490   2.98163   3.04475   3.07645   3.12930
 Alpha virt. eigenvalues --    3.15463   3.17062   3.21170   3.21470   3.24463
 Alpha virt. eigenvalues --    3.25105   3.29114   3.29204   3.30307   3.41629
 Alpha virt. eigenvalues --    3.41815   3.45243   3.50021   3.63635   3.70962
 Alpha virt. eigenvalues --    3.74774   3.77735   3.79912   3.84114   3.89703
 Alpha virt. eigenvalues --    4.07314   4.14178   4.17603   4.18753   4.49846
 Alpha virt. eigenvalues --    4.87957   4.90545   9.80861   9.83601   9.85918
 Alpha virt. eigenvalues --    9.86460   9.88286  23.44382  23.61538  23.90777
 Alpha virt. eigenvalues --   23.92756  23.94781  23.98640  24.04044  24.11339
 Alpha virt. eigenvalues --   24.11701  24.11762  24.18589  24.21966  25.84000
 Alpha virt. eigenvalues --   25.88349  25.88705  25.89677  25.96192  26.15095
 Alpha virt. eigenvalues --   26.16701  26.18831  26.24012  26.26291  26.53419
 Alpha virt. eigenvalues --   26.67301  26.68073  26.71294  26.92016 215.72055
 Alpha virt. eigenvalues --  215.74898 215.77778 215.78436 215.80476
          Condensed to atoms (all electrons):
               1          2          3          4          5          6
     1  C   17.367496  -1.554409  -4.670919  -3.740731  -1.608581  -0.987719
     2  C   -1.554409  18.450443   0.836822   1.312612  -3.741057  -8.197772
     3  C   -4.670919   0.836822  16.851864   0.837079  -4.671186  -0.369174
     4  C   -3.740731   1.312612   0.837079  18.447729  -1.554728  -8.196393
     5  C   -1.608581  -3.741057  -4.671186  -1.554728  17.368043  -0.989746
     6  C   -0.987719  -8.197772  -0.369174  -8.196393  -0.989746  26.473449
     7  H    0.044091   0.296625  -0.026447  -0.060230   0.010160   0.062361
     8  H    0.010157  -0.060223  -0.026352   0.296692   0.043974   0.062343
     9  H    0.066337   0.041153   0.024997   0.041120   0.066326   0.113092
    10  C    1.852476  -2.523006  -2.147078  -2.523128   1.854071   0.050736
    11  C    0.932247  -1.329210  -0.284433   1.774195  -0.665588  -0.137295
    12  C   -0.665931   1.772796  -0.290677  -1.332300   0.932531  -0.137734
    13  C   -0.152718   0.260800   0.441409   0.939404  -0.647785  -0.165876
    14  H   -0.012016   0.010598   0.021923   0.029637  -0.019757   0.006597
    15  C   -0.647461   0.937995   0.440894   0.260277  -0.152391  -0.165396
    16  H   -0.019749   0.029607   0.021888   0.010598  -0.012008   0.006591
    17  C    0.054247  -0.333802  -0.338492  -0.331451   0.054413   0.022471
    18  Cl  -0.974528   0.505759  -0.280203   0.127787   0.038718  -0.204312
    19  Cl   0.038646   0.127806  -0.279975   0.506048  -0.974326  -0.204930
    20  Cl   0.022179   0.088777  -0.076734  -0.031697  -0.007923  -0.006280
    21  Cl   0.011605  -0.018329  -0.079249  -0.018266   0.011609  -0.003456
    22  Cl  -0.007955  -0.031720  -0.076659   0.088808   0.022183  -0.006300
               7          8          9         10         11         12
     1  C    0.044091   0.010157   0.066337   1.852476   0.932247  -0.665931
     2  C    0.296625  -0.060223   0.041153  -2.523006  -1.329210   1.772796
     3  C   -0.026447  -0.026352   0.024997  -2.147078  -0.284433  -0.290677
     4  C   -0.060230   0.296692   0.041120  -2.523128   1.774195  -1.332300
     5  C    0.010160   0.043974   0.066326   1.854071  -0.665588   0.932531
     6  C    0.062361   0.062343   0.113092   0.050736  -0.137295  -0.137734
     7  H    0.488467  -0.000050  -0.000228   0.019410  -0.013327   0.037256
     8  H   -0.000050   0.488434  -0.000228   0.019403   0.037260  -0.013326
     9  H   -0.000228  -0.000228   0.476155   0.004039  -0.000250  -0.000242
    10  C    0.019410   0.019403   0.004039  28.058949  -1.220110  -1.220864
    11  C   -0.013327   0.037260  -0.000250  -1.220110  21.974647  -9.275169
    12  C    0.037256  -0.013326  -0.000242  -1.220864  -9.275169  21.983012
    13  C   -0.009598  -0.010580  -0.000026  -6.262607   3.015242  -1.540231
    14  H   -0.000005  -0.000158   0.000000  -0.023404   0.344336  -0.023308
    15  C   -0.010564  -0.009599  -0.000026  -6.260118  -1.542653   3.014582
    16  H   -0.000153  -0.000005   0.000000  -0.023303  -0.023242   0.344242
    17  C    0.010016   0.010012   0.000033  -3.501772  -7.084843  -7.083816
    18  Cl  -0.011802   0.000372  -0.008140  -0.047184  -0.029702   0.068743
    19  Cl   0.000372  -0.011794  -0.008136  -0.047258   0.068884  -0.029809
    20  Cl  -0.000568  -0.000227  -0.000000  -0.620788   0.145710   0.278779
    21  Cl   0.000062   0.000061   0.000000   0.358890  -0.049353  -0.049309
    22  Cl  -0.000227  -0.000569  -0.000000  -0.620224   0.278449   0.145661
              13         14         15         16         17         18
     1  C   -0.152718  -0.012016  -0.647461  -0.019749   0.054247  -0.974528
     2  C    0.260800   0.010598   0.937995   0.029607  -0.333802   0.505759
     3  C    0.441409   0.021923   0.440894   0.021888  -0.338492  -0.280203
     4  C    0.939404   0.029637   0.260277   0.010598  -0.331451   0.127787
     5  C   -0.647785  -0.019757  -0.152391  -0.012008   0.054413   0.038718
     6  C   -0.165876   0.006597  -0.165396   0.006591   0.022471  -0.204312
     7  H   -0.009598  -0.000005  -0.010564  -0.000153   0.010016  -0.011802
     8  H   -0.010580  -0.000158  -0.009599  -0.000005   0.010012   0.000372
     9  H   -0.000026   0.000000  -0.000026   0.000000   0.000033  -0.008140
    10  C   -6.262607  -0.023404  -6.260118  -0.023303  -3.501772  -0.047184
    11  C    3.015242   0.344336  -1.542653  -0.023242  -7.084843  -0.029702
    12  C   -1.540231  -0.023308   3.014582   0.344242  -7.083816   0.068743
    13  C   20.767376   0.006497  -7.690737  -0.007358  -1.956927  -0.003879
    14  H    0.006497   0.485233  -0.007324  -0.000160   0.021114  -0.000131
    15  C   -7.690737  -0.007324  20.763570   0.006529  -1.951238   0.024728
    16  H   -0.007358  -0.000160   0.006529   0.485272   0.021088  -0.000249
    17  C   -1.956927   0.021114  -1.951238   0.021088  29.105113  -0.003906
    18  Cl  -0.003879  -0.000131   0.024728  -0.000249  -0.003906  17.471652
    19  Cl   0.024779  -0.000249  -0.003909  -0.000131  -0.003896  -0.020798
    20  Cl   0.210014   0.000729  -0.788360  -0.007555   0.010939   0.001466
    21  Cl  -0.046211  -0.000143  -0.046416  -0.000142  -0.849627   0.000051
    22  Cl  -0.788299  -0.007551   0.209814   0.000729   0.010898  -0.000105
              19         20         21         22
     1  C    0.038646   0.022179   0.011605  -0.007955
     2  C    0.127806   0.088777  -0.018329  -0.031720
     3  C   -0.279975  -0.076734  -0.079249  -0.076659
     4  C    0.506048  -0.031697  -0.018266   0.088808
     5  C   -0.974326  -0.007923   0.011609   0.022183
     6  C   -0.204930  -0.006280  -0.003456  -0.006300
     7  H    0.000372  -0.000568   0.000062  -0.000227
     8  H   -0.011794  -0.000227   0.000061  -0.000569
     9  H   -0.008136  -0.000000   0.000000  -0.000000
    10  C   -0.047258  -0.620788   0.358890  -0.620224
    11  C    0.068884   0.145710  -0.049353   0.278449
    12  C   -0.029809   0.278779  -0.049309   0.145661
    13  C    0.024779   0.210014  -0.046211  -0.788299
    14  H   -0.000249   0.000729  -0.000143  -0.007551
    15  C   -0.003909  -0.788360  -0.046416   0.209814
    16  H   -0.000131  -0.007555  -0.000142   0.000729
    17  C   -0.003896   0.010939  -0.849627   0.010898
    18  Cl  -0.020798   0.001466   0.000051  -0.000105
    19  Cl  17.471628  -0.000105   0.000051   0.001467
    20  Cl  -0.000105  17.555247  -0.229444  -0.003213
    21  Cl   0.000051  -0.229444  17.677305  -0.229314
    22  Cl   0.001467  -0.003213  -0.229314  17.555091
 Mulliken charges:
               1
     1  C    0.643235
     2  C   -0.882266
     3  C    0.140700
     4  C   -0.883065
     5  C    0.643052
     6  C   -1.025256
     7  H    0.164379
     8  H    0.164404
     9  H    0.184022
    10  C    0.822870
    11  C   -0.915792
    12  C   -0.914885
    13  C   -0.382690
    14  H    0.167542
    15  C   -0.382198
    16  H    0.167511
    17  C    0.119426
    18  Cl   0.345663
    19  Cl   0.345633
    20  Cl   0.459056
    21  Cl   0.559624
    22  Cl   0.459035
 Sum of Mulliken charges =  -0.00000
 Mulliken charges with hydrogens summed into heavy atoms:
               1
     1  C    0.643235
     2  C   -0.717887
     3  C    0.140700
     4  C   -0.718661
     5  C    0.643052
     6  C   -0.841233
    10  C    0.822870
    11  C   -0.748250
    12  C   -0.747374
    13  C   -0.382690
    15  C   -0.382198
    17  C    0.119426
    18  Cl   0.345663
    19  Cl   0.345633
    20  Cl   0.459056
    21  Cl   0.559624
    22  Cl   0.459035
 Electronic spatial extent (au):  <R**2>=           8739.6882
 Charge=             -0.0000 electrons
 Dipole moment (field-independent basis, Debye):
    X=             -1.0444    Y=              0.0003    Z=             -0.0001  Tot=              1.0444
 Quadrupole moment (field-independent basis, Debye-Ang):
   XX=           -141.3991   YY=           -133.5096   ZZ=           -135.2133
   XY=              0.0008   XZ=              0.0005   YZ=              0.5346
 Traceless Quadrupole moment (field-independent basis, Debye-Ang):
   XX=             -4.6918   YY=              3.1977   ZZ=              1.4941
   XY=              0.0008   XZ=              0.0005   YZ=              0.5346
 Octapole moment (field-independent basis, Debye-Ang**2):
  XXX=             -3.0439  YYY=              0.0049  ZZZ=             -0.0040  XYY=             12.8793
  XXY=             -0.0047  XXZ=             -0.0053  XZZ=              8.9936  YZZ=             -0.0045
  YYZ=             -0.0025  XYZ=             -2.6162
 Hexadecapole moment (field-independent basis, Debye-Ang**3):
 XXXX=          -8392.0038 YYYY=          -2444.3715 ZZZZ=           -515.9498 XXXY=              0.0360
 XXXZ=              0.0187 YYYX=              0.0151 YYYZ=              6.4234 ZZZX=             -0.0068
 ZZZY=              1.9300 XXYY=          -1877.4107 XXZZ=          -1537.2700 YYZZ=           -494.9040
 XXYZ=             11.7875 YYXZ=             -0.0074 ZZXY=             -0.0057
 N-N= 1.644817876700D+03 E-N=-9.826138579351D+03  KE= 2.754754672674D+03
 No NMR shielding tensors so no spin-rotation constants.
 Leave Link  601 at Wed Sep 30 05:53:52 2020, MaxMem=  3221225472 cpu:               1.3 elap:               0.3
 (Enter /usr/local/Gaussian/gaussian-16-A03-avx2/g16/linda-exe/l602.exel)
 FitSet:  NAtFit=    22 NAtPot=    22 NAtFrz=     0 MDM=    26 TotChg=   0.00000
 Breneman (CHELPG) radii used.
 Generate Potential Derived Charges using the Breneman model, NDens= 1.
 Grid spacing= 0.300 Box extension= 2.800
 NStep X,Y,Z=   52     36     27   Total possible points=       50544
 Number of Points to Fit=   13814

 **********************************************************************

            Electrostatic Properties Using The SCF Density

 **********************************************************************

       Atomic Center    1 is at  -3.346357  1.106300 -0.428642
       Atomic Center    2 is at  -1.962460  1.121660 -0.435523
       Atomic Center    3 is at  -1.259310  0.000200  0.000072
       Atomic Center    4 is at  -1.962309 -1.121367  0.435773
       Atomic Center    5 is at  -3.346224 -1.106282  0.428771
       Atomic Center    6 is at  -4.060732 -0.000080 -0.000030
       Atomic Center    7 is at  -1.438213  1.994223 -0.801029
       Atomic Center    8 is at  -1.437898 -1.993698  0.801544
       Atomic Center    9 is at  -5.141331 -0.000149 -0.000200
       Atomic Center   10 is at   0.224217  0.000189  0.000127
       Atomic Center   11 is at   0.932650 -1.118940 -0.423568
       Atomic Center   12 is at   0.932854  1.119210  0.423638
       Atomic Center   13 is at   2.316792 -1.118879 -0.422807
       Atomic Center   14 is at   0.412498 -1.996773 -0.781963
       Atomic Center   15 is at   2.316979  1.118844  0.422970
       Atomic Center   16 is at   0.412902  1.997360  0.781598
       Atomic Center   17 is at   3.034861 -0.000130  0.000202
       Atomic Center   18 is at  -4.217507  2.510316 -0.984903
       Atomic Center   19 is at  -4.217083 -2.510481  0.984951
       Atomic Center   20 is at   3.139422  2.543917  0.974696
       Atomic Center   21 is at   4.760181 -0.000208  0.000170
       Atomic Center   22 is at   3.138886 -2.543856 -0.975258
   13814 points will be used for fitting atomic charges
 Fitting point charges to electrostatic potential
 Charges from ESP fit, RMS=   0.00560 RRMS=   0.49302:
 ESP charges:
               1
     1  C    0.097105
     2  C   -0.144046
     3  C    0.077157
     4  C   -0.143912
     5  C    0.097046
     6  C   -0.074294
     7  H    0.111975
     8  H    0.111906
     9  H    0.105554
    10  C    0.078992
    11  C   -0.151229
    12  C   -0.151401
    13  C    0.075665
    14  H    0.115409
    15  C    0.075773
    16  H    0.115462
    17  C    0.100890
    18  Cl  -0.115320
    19  Cl  -0.115297
    20  Cl  -0.092376
    21  Cl  -0.082676
    22  Cl  -0.092384
 Sum of ESP charges =  -0.00000
 ESP charges with hydrogens summed into heavy atoms:
               1
     1  C    0.097105
     2  C   -0.032072
     3  C    0.077157
     4  C   -0.032005
     5  C    0.097046
     6  C    0.031260
    10  C    0.078992
    11  C   -0.035819
    12  C   -0.035939
    13  C    0.075665
    15  C    0.075773
    17  C    0.100890
    18  Cl  -0.115320
    19  Cl  -0.115297
    20  Cl  -0.092376
    21  Cl  -0.082676
    22  Cl  -0.092384
 Charge=  -0.00000 Dipole=    -1.2388     0.0006     0.0003 Tot=     1.2388
 -----------------------------------------------------------------

              Electrostatic Properties (Atomic Units)

 -----------------------------------------------------------------
    Center     Electric         -------- Electric Field --------
               Potential          X             Y             Z
 -----------------------------------------------------------------
    1 Atom    -14.681729
    2 Atom    -14.737665
    3 Atom    -14.719972
    4 Atom    -14.737666
    5 Atom    -14.681729
    6 Atom    -14.735014
    7 Atom     -1.062925
    8 Atom     -1.062931
    9 Atom     -1.059526
   10 Atom    -14.719751
   11 Atom    -14.733535
   12 Atom    -14.733534
   13 Atom    -14.673952
   14 Atom     -1.060030
   15 Atom    -14.673953
   16 Atom     -1.060025
   17 Atom    -14.671603
   18 Atom    -64.380952
   19 Atom    -64.380951
   20 Atom    -64.377610
   21 Atom    -64.376805
   22 Atom    -64.377609
 -----------------------------------------------------------------
 Leave Link  602 at Wed Sep 30 05:53:54 2020, MaxMem=  3221225472 cpu:               6.7 elap:               1.2
 (Enter /usr/local/Gaussian/gaussian-16-A03-avx2/g16/l9999.exe)
 1\1\GINC-NODE-015\SP\RCAM-B3LYP\6-311+G(d,p)\C12H5Cl5\ROOT\30-Sep-2020
 \0\\#P CAM-B3LYP/6-311+G** Guess=Read Geom=Check Pop=CHelpG\\PCB charg
 e distribution\\0,1\C,0,-2.9635868785,-0.2880738126,0.4177275017\C,0,-
 1.5796954978,-0.3034870621,0.4099382591\C,0,-0.8811350014,0.81889118,-
 0.0306480753\C,0,-1.5886462647,1.9414155523,-0.4564675439\C,0,-2.97241
 03331,1.9263540323,-0.4348614566\C,0,-3.6823994734,0.8192489221,-0.000
 9154281\H,0,-1.0516556563,-1.1768507839,0.7679942882\H,0,-1.0680898183
 ,2.8145202781,-0.825882009\H,0,-4.762935881,0.8193466593,0.0106834442\
 C,0,0.6023088812,0.8188615736,-0.0463939433\C,0,1.3152392478,1.9370542
 337,0.3721986745\C,0,1.3063697507,-0.2992617959,-0.4797901029\C,0,2.69
 92958924,1.9369565702,0.3567979046\H,0,0.7989510537,2.8141256708,0.737
 9684589\C,0,2.690424495,-0.2989358689,-0.4937613946\H,0,0.7826167641,-
 1.1766230581,-0.8341250994\C,0,3.4127948923,0.8191038141,-0.0761958126
 \Cl,0,-3.8288755439,-1.6932630035,0.9801400099\Cl,0,-3.849032697,3.331
 7740001,-0.9787675653\Cl,0,3.5069142677,-1.7228373964,-1.0572299981\Cl
 ,0,5.1380187434,0.8191336551,-0.0944122919\Cl,0,3.527259127,3.36071542
 95,0.9035965699\\Version=ES64L-G16RevA.03\State=1-A\HF=-2761.2614664\R
 MSD=2.650e-09\Dipole=-0.4108691,-0.0001218,0.0043726\Quadrupole=-3.487
 708,2.3756922,1.1120158,0.0037829,0.0482716,0.4002006\PG=C01 [X(C12H5C
 l5)]\\@


 WE ARE REACHING THE STAGE WHERE THE PROBLEMS WE MUST SOLVE ARE 
 GOING TO BECOME INSOLUBLE WITHOUT COMPUTERS.
 I DO NOT FEAR COMPUTERS.  I FEAR THE LACK OF THEM.

                                   -- ISSAC ASIMOV
 Job cpu time:       0 days  0 hours  0 minutes  4.7 seconds.
 Elapsed time:       0 days  0 hours  0 minutes 20.0 seconds.
 File lengths (MBytes):  RWF=    105 Int=      0 D2E=      0 Chk=     20 Scr=      1
 Normal termination of Gaussian 16 at Wed Sep 30 05:53:55 2020.
