 Set GAUSS_PDEF to "6".
 Set GAUSS_MDEF to "24576MB".
 Set GAUSS_WDEF to "node-009:1,node-010:1".
 Set GAUSS_SDEF to "ssh".
 Entering Gaussian System, Link 0=g16
 Initial command:
 /usr/local/Gaussian/gaussian-16-A03-avx2/g16/l1.exe "/tmp/168284.bcm-head.cm.cluster/Gau-7445.inp" -scrdir="/tmp/168284.bcm-head.cm.cluster/"
 Default linda workers: node-009:1,node-010:1
 Default is to use   6 SMP processors on each worker.
 Entering Link 1 = /usr/local/Gaussian/gaussian-16-A03-avx2/g16/l1.exe PID=      7446.
  
 Copyright (c) 1988,1990,1992,1993,1995,1998,2003,2009,2016,
            Gaussian, Inc.  All Rights Reserved.
  
 This is part of the Gaussian(R) 16 program.  It is based on
 the Gaussian(R) 09 system (copyright 2009, Gaussian, Inc.),
 the Gaussian(R) 03 system (copyright 2003, Gaussian, Inc.),
 the Gaussian(R) 98 system (copyright 1998, Gaussian, Inc.),
 the Gaussian(R) 94 system (copyright 1995, Gaussian, Inc.),
 the Gaussian 92(TM) system (copyright 1992, Gaussian, Inc.),
 the Gaussian 90(TM) system (copyright 1990, Gaussian, Inc.),
 the Gaussian 88(TM) system (copyright 1988, Gaussian, Inc.),
 the Gaussian 86(TM) system (copyright 1986, Carnegie Mellon
 University), and the Gaussian 82(TM) system (copyright 1983,
 Carnegie Mellon University). Gaussian is a federally registered
 trademark of Gaussian, Inc.
  
 This software contains proprietary and confidential information,
 including trade secrets, belonging to Gaussian, Inc.
  
 This software is provided under written license and may be
 used, copied, transmitted, or stored only in accord with that
 written license.
  
 The following legend is applicable only to US Government
 contracts under FAR:
  
                    RESTRICTED RIGHTS LEGEND
  
 Use, reproduction and disclosure by the US Government is
 subject to restrictions as set forth in subparagraphs (a)
 and (c) of the Commercial Computer Software - Restricted
 Rights clause in FAR 52.227-19.
  
 Gaussian, Inc.
 340 Quinnipiac St., Bldg. 40, Wallingford CT 06492
  
  
 ---------------------------------------------------------------
 Warning -- This program may not be used in any manner that
 competes with the business of Gaussian, Inc. or will provide
 assistance to any competitor of Gaussian, Inc.  The licensee
 of this program is prohibited from giving any competitor of
 Gaussian, Inc. access to this program.  By using this program,
 the user acknowledges that Gaussian, Inc. is engaged in the
 business of creating and licensing software in the field of
 computational chemistry and represents and warrants to the
 licensee that it is not a competitor of Gaussian, Inc. and that
 it will not use this program in any manner prohibited above.
 ---------------------------------------------------------------
  

 Cite this work as:
 Gaussian 16, Revision A.03,
 M. J. Frisch, G. W. Trucks, H. B. Schlegel, G. E. Scuseria, 
 M. A. Robb, J. R. Cheeseman, G. Scalmani, V. Barone, 
 G. A. Petersson, H. Nakatsuji, X. Li, M. Caricato, A. V. Marenich, 
 J. Bloino, B. G. Janesko, R. Gomperts, B. Mennucci, H. P. Hratchian, 
 J. V. Ortiz, A. F. Izmaylov, J. L. Sonnenberg, D. Williams-Young, 
 F. Ding, F. Lipparini, F. Egidi, J. Goings, B. Peng, A. Petrone, 
 T. Henderson, D. Ranasinghe, V. G. Zakrzewski, J. Gao, N. Rega, 
 G. Zheng, W. Liang, M. Hada, M. Ehara, K. Toyota, R. Fukuda, 
 J. Hasegawa, M. Ishida, T. Nakajima, Y. Honda, O. Kitao, H. Nakai, 
 T. Vreven, K. Throssell, J. A. Montgomery, Jr., J. E. Peralta, 
 F. Ogliaro, M. J. Bearpark, J. J. Heyd, E. N. Brothers, K. N. Kudin, 
 V. N. Staroverov, T. A. Keith, R. Kobayashi, J. Normand, 
 K. Raghavachari, A. P. Rendell, J. C. Burant, S. S. Iyengar, 
 J. Tomasi, M. Cossi, J. M. Millam, M. Klene, C. Adamo, R. Cammi, 
 J. W. Ochterski, R. L. Martin, K. Morokuma, O. Farkas, 
 J. B. Foresman, and D. J. Fox, Gaussian, Inc., Wallingford CT, 2016.
 
 ******************************************
 Gaussian 16:  ES64L-G16RevA.03 25-Dec-2016
                30-Sep-2020 
 ******************************************
 %chk=SDS
 SetLPE:  input flags="-env GAUSS_SCRDIR=/tmp/168284.bcm-head.cm.cluster "
 SetLPE:    new flags="-env GAUSS_SCRDIR=/tmp/168284.bcm-head.cm.cluster -opt 'Tsnet.Node.lindarsharg: ssh'  -nodelist 'node-009.hpc.cc.spbu.ru node-010.hpc.cc.spbu.ru' -env GAUSS_MDEF=3221225472 -env GAUSS_EXEDIR="/usr/local/Gaussian/gaussian-16-A03-avx2/g16/bsd:/usr/local/Gaussian/gaussian-16-A03-avx2/g16""
 Will use up to    2 processors via Linda.
 Default route: Maxdisk=213GB Cachesize=163840
 ----------------------------------
 #P CAM-B3LYP/6-311+G** Opt SCF=XQC
 ----------------------------------
 1/4=163840,18=20,19=15,26=3,38=1/1,3;
 2/4=163840,9=110,12=2,17=6,18=5,40=1/2;
 3/4=163840,5=4,6=6,7=111,11=2,25=1,30=1,71=1,74=-40/1,2,3;
 4/4=163840/1;
 5/4=163840,5=2,8=3,13=1,38=5/2,8;
 6/4=163840,7=2,8=2,9=2,10=2,28=1/1;
 7/4=163840/1,2,3,16;
 1/4=163840,18=20,19=15,26=3/3(2);
 2/4=163840,9=110/2;
 99/4=163840/99;
 2/4=163840,9=110/2;
 3/4=163840,5=4,6=6,7=111,11=2,25=1,30=1,71=1,74=-40/1,2,3;
 4/4=163840,5=5,16=3,69=1/1;
 5/4=163840,5=2,8=3,13=1,38=5/2,8;
 7/4=163840/1,2,3,16;
 1/4=163840,18=20,19=15,26=3/3(-5);
 2/4=163840,9=110/2;
 6/4=163840,7=2,8=2,9=2,10=2,19=2,28=1/1;
 99/4=163840,9=1/99;
 Leave Link    1 at Wed Sep 30 05:10:29 2020, MaxMem=           0 cpu:               0.7 elap:               0.2
 (Enter /usr/local/Gaussian/gaussian-16-A03-avx2/g16/l101.exe)
 -------------------------
 SDS geometry optimization
 -------------------------
 Symbolic Z-matrix:
 Charge = -1 Multiplicity = 1
 S                    -0.08368  -0.67364   0. 
 O                     0.47297  -2.24814   0. 
 O                     0.47299   0.1136    1.36355 
 O                    -1.75368  -0.67362   0. 
 O                     0.47299   0.1136   -1.36355 
 C                    -0.00355   1.46186  -1.36431 
 H                     0.35276   1.96658  -0.4907 
 H                    -1.07355   1.46196  -1.36481 
 C                     0.51043   2.18727  -2.62177 
 H                     0.15413   1.68254  -3.49539 
 H                     1.58043   2.18718  -2.62127 
 C                    -0.00278   3.63923  -2.62261 
 H                     0.35354   4.14397  -1.74901 
 H                    -1.07278   3.63932  -2.62308 
 C                     0.51117   4.36463  -3.88009 
 H                     0.15485   3.85989  -4.75368 
 H                     1.58117   4.36454  -3.87961 
 C                    -0.00204   5.8166   -3.88092 
 H                     0.35428   6.32134  -3.00732 
 H                    -1.07204   5.81669  -3.88138 
 C                     0.5119    6.54199  -5.1384 
 H                     0.15557   6.03726  -6.012 
 H                     1.5819    6.5419   -5.13793 
 C                    -0.00131   7.99396  -5.13923 
 H                     0.35502   8.4987   -4.26563 
 H                    -1.07131   7.99405  -5.13969 
 C                     0.51263   8.71936  -6.39671 
 H                     0.1563    8.21462  -7.27031 
 H                     1.58263   8.71927  -6.39625 
 C                    -0.00058   10.17133  -6.39754 
 H                     0.35575   10.67606  -5.52395 
 H                    -1.07058   10.17142  -6.398 
 C                     0.51336   10.89672  -7.65503 
 H                     0.15702   10.39198  -8.52862 
 H                     1.58336   10.89663  -7.65457 
 C                     0.00015   12.34869  -7.65586 
 H                     0.35649   12.85343  -6.78226 
 H                    -1.06985   12.34878  -7.65631 
 C                     0.51408   13.07408  -8.91335 
 H                     0.15775   12.56935  -9.78694 
 H                     0.15751   14.08292  -8.91392 
 H                     1.58408   13.07399  -8.91289 
 
 ITRead=  0  0  0  0  0  0  0  0  0  0  0  0  0  0  0  0  0  0  0  0
 ITRead=  0  0  0  0  0  0  0  0  0  0  0  0  0  0  0  0  0  0  0  0
 ITRead=  0  0
 MicOpt= -1 -1 -1 -1 -1 -1 -1 -1 -1 -1 -1 -1 -1 -1 -1 -1 -1 -1 -1 -1
 MicOpt= -1 -1 -1 -1 -1 -1 -1 -1 -1 -1 -1 -1 -1 -1 -1 -1 -1 -1 -1 -1
 MicOpt= -1 -1
 NAtoms=     42 NQM=       42 NQMF=       0 NMMI=      0 NMMIF=      0
                NMic=       0 NMicF=      0.
                    Isotopes and Nuclear Properties:
 (Nuclear quadrupole moments (NQMom) in fm**2, nuclear magnetic moments (NMagM)
  in nuclear magnetons)

  Atom         1           2           3           4           5           6           7           8           9          10
 IAtWgt=          32          16          16          16          16          12           1           1          12           1
 AtmWgt=  31.9720718  15.9949146  15.9949146  15.9949146  15.9949146  12.0000000   1.0078250   1.0078250  12.0000000   1.0078250
 NucSpn=           0           0           0           0           0           0           1           1           0           1
 AtZEff=  -0.0000000  -0.0000000  -0.0000000  -0.0000000  -0.0000000  -0.0000000  -0.0000000  -0.0000000  -0.0000000  -0.0000000
 NQMom=    0.0000000   0.0000000   0.0000000   0.0000000   0.0000000   0.0000000   0.0000000   0.0000000   0.0000000   0.0000000
 NMagM=    0.0000000   0.0000000   0.0000000   0.0000000   0.0000000   0.0000000   2.7928460   2.7928460   0.0000000   2.7928460
 AtZNuc=  16.0000000   8.0000000   8.0000000   8.0000000   8.0000000   6.0000000   1.0000000   1.0000000   6.0000000   1.0000000

  Atom        11          12          13          14          15          16          17          18          19          20
 IAtWgt=           1          12           1           1          12           1           1          12           1           1
 AtmWgt=   1.0078250  12.0000000   1.0078250   1.0078250  12.0000000   1.0078250   1.0078250  12.0000000   1.0078250   1.0078250
 NucSpn=           1           0           1           1           0           1           1           0           1           1
 AtZEff=  -0.0000000  -0.0000000  -0.0000000  -0.0000000  -0.0000000  -0.0000000  -0.0000000  -0.0000000  -0.0000000  -0.0000000
 NQMom=    0.0000000   0.0000000   0.0000000   0.0000000   0.0000000   0.0000000   0.0000000   0.0000000   0.0000000   0.0000000
 NMagM=    2.7928460   0.0000000   2.7928460   2.7928460   0.0000000   2.7928460   2.7928460   0.0000000   2.7928460   2.7928460
 AtZNuc=   1.0000000   6.0000000   1.0000000   1.0000000   6.0000000   1.0000000   1.0000000   6.0000000   1.0000000   1.0000000

  Atom        21          22          23          24          25          26          27          28          29          30
 IAtWgt=          12           1           1          12           1           1          12           1           1          12
 AtmWgt=  12.0000000   1.0078250   1.0078250  12.0000000   1.0078250   1.0078250  12.0000000   1.0078250   1.0078250  12.0000000
 NucSpn=           0           1           1           0           1           1           0           1           1           0
 AtZEff=  -0.0000000  -0.0000000  -0.0000000  -0.0000000  -0.0000000  -0.0000000  -0.0000000  -0.0000000  -0.0000000  -0.0000000
 NQMom=    0.0000000   0.0000000   0.0000000   0.0000000   0.0000000   0.0000000   0.0000000   0.0000000   0.0000000   0.0000000
 NMagM=    0.0000000   2.7928460   2.7928460   0.0000000   2.7928460   2.7928460   0.0000000   2.7928460   2.7928460   0.0000000
 AtZNuc=   6.0000000   1.0000000   1.0000000   6.0000000   1.0000000   1.0000000   6.0000000   1.0000000   1.0000000   6.0000000

  Atom        31          32          33          34          35          36          37          38          39          40
 IAtWgt=           1           1          12           1           1          12           1           1          12           1
 AtmWgt=   1.0078250   1.0078250  12.0000000   1.0078250   1.0078250  12.0000000   1.0078250   1.0078250  12.0000000   1.0078250
 NucSpn=           1           1           0           1           1           0           1           1           0           1
 AtZEff=  -0.0000000  -0.0000000  -0.0000000  -0.0000000  -0.0000000  -0.0000000  -0.0000000  -0.0000000  -0.0000000  -0.0000000
 NQMom=    0.0000000   0.0000000   0.0000000   0.0000000   0.0000000   0.0000000   0.0000000   0.0000000   0.0000000   0.0000000
 NMagM=    2.7928460   2.7928460   0.0000000   2.7928460   2.7928460   0.0000000   2.7928460   2.7928460   0.0000000   2.7928460
 AtZNuc=   1.0000000   1.0000000   6.0000000   1.0000000   1.0000000   6.0000000   1.0000000   1.0000000   6.0000000   1.0000000

  Atom        41          42
 IAtWgt=           1           1
 AtmWgt=   1.0078250   1.0078250
 NucSpn=           1           1
 AtZEff=  -0.0000000  -0.0000000
 NQMom=    0.0000000   0.0000000
 NMagM=    2.7928460   2.7928460
 AtZNuc=   1.0000000   1.0000000
 Leave Link  101 at Wed Sep 30 05:10:29 2020, MaxMem=  3221225472 cpu:               3.7 elap:               0.8
 (Enter /usr/local/Gaussian/gaussian-16-A03-avx2/g16/l103.exe)

 GradGradGradGradGradGradGradGradGradGradGradGradGradGradGradGradGradGrad
 Berny optimization.
 Initialization pass.
                           ----------------------------
                           !    Initial Parameters    !
                           ! (Angstroms and Degrees)  !
 --------------------------                            --------------------------
 ! Name  Definition              Value          Derivative Info.                !
 --------------------------------------------------------------------------------
 ! R1    R(1,2)                  1.67           estimate D2E/DX2                !
 ! R2    R(1,3)                  1.67           estimate D2E/DX2                !
 ! R3    R(1,4)                  1.67           estimate D2E/DX2                !
 ! R4    R(1,5)                  1.67           estimate D2E/DX2                !
 ! R5    R(5,6)                  1.43           estimate D2E/DX2                !
 ! R6    R(6,7)                  1.07           estimate D2E/DX2                !
 ! R7    R(6,8)                  1.07           estimate D2E/DX2                !
 ! R8    R(6,9)                  1.54           estimate D2E/DX2                !
 ! R9    R(9,10)                 1.07           estimate D2E/DX2                !
 ! R10   R(9,11)                 1.07           estimate D2E/DX2                !
 ! R11   R(9,12)                 1.54           estimate D2E/DX2                !
 ! R12   R(12,13)                1.07           estimate D2E/DX2                !
 ! R13   R(12,14)                1.07           estimate D2E/DX2                !
 ! R14   R(12,15)                1.54           estimate D2E/DX2                !
 ! R15   R(15,16)                1.07           estimate D2E/DX2                !
 ! R16   R(15,17)                1.07           estimate D2E/DX2                !
 ! R17   R(15,18)                1.54           estimate D2E/DX2                !
 ! R18   R(18,19)                1.07           estimate D2E/DX2                !
 ! R19   R(18,20)                1.07           estimate D2E/DX2                !
 ! R20   R(18,21)                1.54           estimate D2E/DX2                !
 ! R21   R(21,22)                1.07           estimate D2E/DX2                !
 ! R22   R(21,23)                1.07           estimate D2E/DX2                !
 ! R23   R(21,24)                1.54           estimate D2E/DX2                !
 ! R24   R(24,25)                1.07           estimate D2E/DX2                !
 ! R25   R(24,26)                1.07           estimate D2E/DX2                !
 ! R26   R(24,27)                1.54           estimate D2E/DX2                !
 ! R27   R(27,28)                1.07           estimate D2E/DX2                !
 ! R28   R(27,29)                1.07           estimate D2E/DX2                !
 ! R29   R(27,30)                1.54           estimate D2E/DX2                !
 ! R30   R(30,31)                1.07           estimate D2E/DX2                !
 ! R31   R(30,32)                1.07           estimate D2E/DX2                !
 ! R32   R(30,33)                1.54           estimate D2E/DX2                !
 ! R33   R(33,34)                1.07           estimate D2E/DX2                !
 ! R34   R(33,35)                1.07           estimate D2E/DX2                !
 ! R35   R(33,36)                1.54           estimate D2E/DX2                !
 ! R36   R(36,37)                1.07           estimate D2E/DX2                !
 ! R37   R(36,38)                1.07           estimate D2E/DX2                !
 ! R38   R(36,39)                1.54           estimate D2E/DX2                !
 ! R39   R(39,40)                1.07           estimate D2E/DX2                !
 ! R40   R(39,41)                1.07           estimate D2E/DX2                !
 ! R41   R(39,42)                1.07           estimate D2E/DX2                !
 ! A1    A(2,1,3)              109.4712         estimate D2E/DX2                !
 ! A2    A(2,1,4)              109.4712         estimate D2E/DX2                !
 ! A3    A(2,1,5)              109.4712         estimate D2E/DX2                !
 ! A4    A(3,1,4)              109.4712         estimate D2E/DX2                !
 ! A5    A(3,1,5)              109.4713         estimate D2E/DX2                !
 ! A6    A(4,1,5)              109.4712         estimate D2E/DX2                !
 ! A7    A(1,5,6)              109.5            estimate D2E/DX2                !
 ! A8    A(5,6,7)              109.4712         estimate D2E/DX2                !
 ! A9    A(5,6,8)              109.4712         estimate D2E/DX2                !
 ! A10   A(5,6,9)              109.4712         estimate D2E/DX2                !
 ! A11   A(7,6,8)              109.4712         estimate D2E/DX2                !
 ! A12   A(7,6,9)              109.4713         estimate D2E/DX2                !
 ! A13   A(8,6,9)              109.4712         estimate D2E/DX2                !
 ! A14   A(6,9,10)             109.4712         estimate D2E/DX2                !
 ! A15   A(6,9,11)             109.4712         estimate D2E/DX2                !
 ! A16   A(6,9,12)             109.4712         estimate D2E/DX2                !
 ! A17   A(10,9,11)            109.4712         estimate D2E/DX2                !
 ! A18   A(10,9,12)            109.4713         estimate D2E/DX2                !
 ! A19   A(11,9,12)            109.4712         estimate D2E/DX2                !
 ! A20   A(9,12,13)            109.4712         estimate D2E/DX2                !
 ! A21   A(9,12,14)            109.4712         estimate D2E/DX2                !
 ! A22   A(9,12,15)            109.4712         estimate D2E/DX2                !
 ! A23   A(13,12,14)           109.4712         estimate D2E/DX2                !
 ! A24   A(13,12,15)           109.4713         estimate D2E/DX2                !
 ! A25   A(14,12,15)           109.4712         estimate D2E/DX2                !
 ! A26   A(12,15,16)           109.4712         estimate D2E/DX2                !
 ! A27   A(12,15,17)           109.4712         estimate D2E/DX2                !
 ! A28   A(12,15,18)           109.4712         estimate D2E/DX2                !
 ! A29   A(16,15,17)           109.4712         estimate D2E/DX2                !
 ! A30   A(16,15,18)           109.4713         estimate D2E/DX2                !
 ! A31   A(17,15,18)           109.4712         estimate D2E/DX2                !
 ! A32   A(15,18,19)           109.4712         estimate D2E/DX2                !
 ! A33   A(15,18,20)           109.4712         estimate D2E/DX2                !
 ! A34   A(15,18,21)           109.4712         estimate D2E/DX2                !
 ! A35   A(19,18,20)           109.4712         estimate D2E/DX2                !
 ! A36   A(19,18,21)           109.4713         estimate D2E/DX2                !
 ! A37   A(20,18,21)           109.4712         estimate D2E/DX2                !
 ! A38   A(18,21,22)           109.4712         estimate D2E/DX2                !
 ! A39   A(18,21,23)           109.4712         estimate D2E/DX2                !
 ! A40   A(18,21,24)           109.4712         estimate D2E/DX2                !
 ! A41   A(22,21,23)           109.4712         estimate D2E/DX2                !
 ! A42   A(22,21,24)           109.4713         estimate D2E/DX2                !
 ! A43   A(23,21,24)           109.4712         estimate D2E/DX2                !
 ! A44   A(21,24,25)           109.4712         estimate D2E/DX2                !
 ! A45   A(21,24,26)           109.4712         estimate D2E/DX2                !
 ! A46   A(21,24,27)           109.4712         estimate D2E/DX2                !
 ! A47   A(25,24,26)           109.4712         estimate D2E/DX2                !
 ! A48   A(25,24,27)           109.4713         estimate D2E/DX2                !
 ! A49   A(26,24,27)           109.4712         estimate D2E/DX2                !
 ! A50   A(24,27,28)           109.4712         estimate D2E/DX2                !
 ! A51   A(24,27,29)           109.4712         estimate D2E/DX2                !
 ! A52   A(24,27,30)           109.4712         estimate D2E/DX2                !
 ! A53   A(28,27,29)           109.4712         estimate D2E/DX2                !
 ! A54   A(28,27,30)           109.4713         estimate D2E/DX2                !
 ! A55   A(29,27,30)           109.4712         estimate D2E/DX2                !
 ! A56   A(27,30,31)           109.4712         estimate D2E/DX2                !
 ! A57   A(27,30,32)           109.4712         estimate D2E/DX2                !
 ! A58   A(27,30,33)           109.4712         estimate D2E/DX2                !
 ! A59   A(31,30,32)           109.4712         estimate D2E/DX2                !
 ! A60   A(31,30,33)           109.4713         estimate D2E/DX2                !
 ! A61   A(32,30,33)           109.4712         estimate D2E/DX2                !
 ! A62   A(30,33,34)           109.4712         estimate D2E/DX2                !
 ! A63   A(30,33,35)           109.4712         estimate D2E/DX2                !
 ! A64   A(30,33,36)           109.4712         estimate D2E/DX2                !
 ! A65   A(34,33,35)           109.4712         estimate D2E/DX2                !
 ! A66   A(34,33,36)           109.4713         estimate D2E/DX2                !
 ! A67   A(35,33,36)           109.4712         estimate D2E/DX2                !
 ! A68   A(33,36,37)           109.4712         estimate D2E/DX2                !
 ! A69   A(33,36,38)           109.4712         estimate D2E/DX2                !
 ! A70   A(33,36,39)           109.4712         estimate D2E/DX2                !
 ! A71   A(37,36,38)           109.4712         estimate D2E/DX2                !
 ! A72   A(37,36,39)           109.4713         estimate D2E/DX2                !
 ! A73   A(38,36,39)           109.4712         estimate D2E/DX2                !
 ! A74   A(36,39,40)           109.4712         estimate D2E/DX2                !
 ! A75   A(36,39,41)           109.4712         estimate D2E/DX2                !
 ! A76   A(36,39,42)           109.4712         estimate D2E/DX2                !
 ! A77   A(40,39,41)           109.4713         estimate D2E/DX2                !
 ! A78   A(40,39,42)           109.4712         estimate D2E/DX2                !
 ! A79   A(41,39,42)           109.4712         estimate D2E/DX2                !
 ! D1    D(2,1,5,6)            179.988          estimate D2E/DX2                !
 ! D2    D(3,1,5,6)            -60.012          estimate D2E/DX2                !
 ! D3    D(4,1,5,6)             59.988          estimate D2E/DX2                !
 ! D4    D(1,5,6,7)             59.9868         estimate D2E/DX2                !
 ! D5    D(1,5,6,8)            -60.0132         estimate D2E/DX2                !
 ! D6    D(1,5,6,9)            179.9868         estimate D2E/DX2                !
 ! D7    D(5,6,9,10)            59.9992         estimate D2E/DX2                !
 ! D8    D(5,6,9,11)           -60.0008         estimate D2E/DX2                !
 ! D9    D(5,6,9,12)           179.9992         estimate D2E/DX2                !
 ! D10   D(7,6,9,10)           179.9992         estimate D2E/DX2                !
 ! D11   D(7,6,9,11)            59.9992         estimate D2E/DX2                !
 ! D12   D(7,6,9,12)           -60.0008         estimate D2E/DX2                !
 ! D13   D(8,6,9,10)           -60.0008         estimate D2E/DX2                !
 ! D14   D(8,6,9,11)           179.9992         estimate D2E/DX2                !
 ! D15   D(8,6,9,12)            59.9992         estimate D2E/DX2                !
 ! D16   D(6,9,12,13)           60.0015         estimate D2E/DX2                !
 ! D17   D(6,9,12,14)          -59.9985         estimate D2E/DX2                !
 ! D18   D(6,9,12,15)         -179.9985         estimate D2E/DX2                !
 ! D19   D(10,9,12,13)        -179.9986         estimate D2E/DX2                !
 ! D20   D(10,9,12,14)          60.0014         estimate D2E/DX2                !
 ! D21   D(10,9,12,15)         -59.9985         estimate D2E/DX2                !
 ! D22   D(11,9,12,13)         -59.9985         estimate D2E/DX2                !
 ! D23   D(11,9,12,14)        -179.9985         estimate D2E/DX2                !
 ! D24   D(11,9,12,15)          60.0015         estimate D2E/DX2                !
 ! D25   D(9,12,15,16)          60.0001         estimate D2E/DX2                !
 ! D26   D(9,12,15,17)         -59.9999         estimate D2E/DX2                !
 ! D27   D(9,12,15,18)        -179.9999         estimate D2E/DX2                !
 ! D28   D(13,12,15,16)       -179.9999         estimate D2E/DX2                !
 ! D29   D(13,12,15,17)         60.0001         estimate D2E/DX2                !
 ! D30   D(13,12,15,18)        -59.9999         estimate D2E/DX2                !
 ! D31   D(14,12,15,16)        -59.9999         estimate D2E/DX2                !
 ! D32   D(14,12,15,17)       -179.9999         estimate D2E/DX2                !
 ! D33   D(14,12,15,18)         60.0001         estimate D2E/DX2                !
 ! D34   D(12,15,18,19)         60.0003         estimate D2E/DX2                !
 ! D35   D(12,15,18,20)        -59.9997         estimate D2E/DX2                !
 ! D36   D(12,15,18,21)       -179.9996         estimate D2E/DX2                !
 ! D37   D(16,15,18,19)       -179.9997         estimate D2E/DX2                !
 ! D38   D(16,15,18,20)         60.0003         estimate D2E/DX2                !
 ! D39   D(16,15,18,21)        -59.9997         estimate D2E/DX2                !
 ! D40   D(17,15,18,19)        -59.9997         estimate D2E/DX2                !
 ! D41   D(17,15,18,20)       -179.9997         estimate D2E/DX2                !
 ! D42   D(17,15,18,21)         60.0004         estimate D2E/DX2                !
 ! D43   D(15,18,21,22)         60.0001         estimate D2E/DX2                !
 ! D44   D(15,18,21,23)        -59.9999         estimate D2E/DX2                !
 ! D45   D(15,18,21,24)       -179.9999         estimate D2E/DX2                !
 ! D46   D(19,18,21,22)       -179.9999         estimate D2E/DX2                !
 ! D47   D(19,18,21,23)         60.0001         estimate D2E/DX2                !
 ! D48   D(19,18,21,24)        -59.9999         estimate D2E/DX2                !
 ! D49   D(20,18,21,22)        -59.9999         estimate D2E/DX2                !
 ! D50   D(20,18,21,23)       -179.9999         estimate D2E/DX2                !
 ! D51   D(20,18,21,24)         60.0001         estimate D2E/DX2                !
 ! D52   D(18,21,24,25)         60.0001         estimate D2E/DX2                !
 ! D53   D(18,21,24,26)        -59.9999         estimate D2E/DX2                !
 ! D54   D(18,21,24,27)       -179.9998         estimate D2E/DX2                !
 ! D55   D(22,21,24,25)       -179.9999         estimate D2E/DX2                !
 ! D56   D(22,21,24,26)         60.0001         estimate D2E/DX2                !
 ! D57   D(22,21,24,27)        -59.9999         estimate D2E/DX2                !
 ! D58   D(23,21,24,25)        -59.9999         estimate D2E/DX2                !
 ! D59   D(23,21,24,26)       -179.9999         estimate D2E/DX2                !
 ! D60   D(23,21,24,27)         60.0002         estimate D2E/DX2                !
 ! D61   D(21,24,27,28)         60.0            estimate D2E/DX2                !
 ! D62   D(21,24,27,29)        -60.0            estimate D2E/DX2                !
 ! D63   D(21,24,27,30)       -180.0            estimate D2E/DX2                !
 ! D64   D(25,24,27,28)       -180.0            estimate D2E/DX2                !
 ! D65   D(25,24,27,29)         60.0            estimate D2E/DX2                !
 ! D66   D(25,24,27,30)        -60.0            estimate D2E/DX2                !
 ! D67   D(26,24,27,28)        -60.0            estimate D2E/DX2                !
 ! D68   D(26,24,27,29)       -180.0            estimate D2E/DX2                !
 ! D69   D(26,24,27,30)         60.0            estimate D2E/DX2                !
 ! D70   D(24,27,30,31)         60.0001         estimate D2E/DX2                !
 ! D71   D(24,27,30,32)        -59.9999         estimate D2E/DX2                !
 ! D72   D(24,27,30,33)       -179.9999         estimate D2E/DX2                !
 ! D73   D(28,27,30,31)       -179.9999         estimate D2E/DX2                !
 ! D74   D(28,27,30,32)         60.0001         estimate D2E/DX2                !
 ! D75   D(28,27,30,33)        -59.9999         estimate D2E/DX2                !
 ! D76   D(29,27,30,31)        -59.9999         estimate D2E/DX2                !
 ! D77   D(29,27,30,32)       -179.9999         estimate D2E/DX2                !
 ! D78   D(29,27,30,33)         60.0001         estimate D2E/DX2                !
 ! D79   D(27,30,33,34)         60.0001         estimate D2E/DX2                !
 ! D80   D(27,30,33,35)        -59.9999         estimate D2E/DX2                !
 ! D81   D(27,30,33,36)       -179.9999         estimate D2E/DX2                !
 ! D82   D(31,30,33,34)       -179.9999         estimate D2E/DX2                !
 ! D83   D(31,30,33,35)         60.0001         estimate D2E/DX2                !
 ! D84   D(31,30,33,36)        -59.9999         estimate D2E/DX2                !
 ! D85   D(32,30,33,34)        -59.9999         estimate D2E/DX2                !
 ! D86   D(32,30,33,35)       -179.9999         estimate D2E/DX2                !
 ! D87   D(32,30,33,36)         60.0001         estimate D2E/DX2                !
 ! D88   D(30,33,36,37)         60.0001         estimate D2E/DX2                !
 ! D89   D(30,33,36,38)        -59.9998         estimate D2E/DX2                !
 ! D90   D(30,33,36,39)       -179.9998         estimate D2E/DX2                !
 ! D91   D(34,33,36,37)       -179.9999         estimate D2E/DX2                !
 ! D92   D(34,33,36,38)         60.0001         estimate D2E/DX2                !
 ! D93   D(34,33,36,39)        -59.9999         estimate D2E/DX2                !
 ! D94   D(35,33,36,37)        -59.9999         estimate D2E/DX2                !
 ! D95   D(35,33,36,38)       -179.9998         estimate D2E/DX2                !
 ! D96   D(35,33,36,39)         60.0002         estimate D2E/DX2                !
 ! D97   D(33,36,39,40)         60.0001         estimate D2E/DX2                !
 ! D98   D(33,36,39,41)       -179.9999         estimate D2E/DX2                !
 ! D99   D(33,36,39,42)        -59.9999         estimate D2E/DX2                !
 ! D100  D(37,36,39,40)       -179.9999         estimate D2E/DX2                !
 ! D101  D(37,36,39,41)        -59.9999         estimate D2E/DX2                !
 ! D102  D(37,36,39,42)         60.0001         estimate D2E/DX2                !
 ! D103  D(38,36,39,40)        -59.9999         estimate D2E/DX2                !
 ! D104  D(38,36,39,41)         60.0001         estimate D2E/DX2                !
 ! D105  D(38,36,39,42)       -179.9999         estimate D2E/DX2                !
 --------------------------------------------------------------------------------
 Trust Radius=3.00D-01 FncErr=1.00D-07 GrdErr=1.00D-06 EigMax=2.50D+02 EigMin=1.00D-04
 Number of steps in this run=    235 maximum allowed number of steps=    252.
 GradGradGradGradGradGradGradGradGradGradGradGradGradGradGradGradGradGrad

 Leave Link  103 at Wed Sep 30 05:10:30 2020, MaxMem=  3221225472 cpu:               0.2 elap:               0.1
 (Enter /usr/local/Gaussian/gaussian-16-A03-avx2/g16/l202.exe)
                          Input orientation:                          
 ---------------------------------------------------------------------
 Center     Atomic      Atomic             Coordinates (Angstroms)
 Number     Number       Type             X           Y           Z
 ---------------------------------------------------------------------
      1         16           0       -0.083682   -0.673640    0.000000
      2          8           0        0.472966   -2.248138    0.000000
      3          8           0        0.472994    0.113598    1.363550
      4          8           0       -1.753682   -0.673620    0.000000
      5          8           0        0.472994    0.113598   -1.363550
      6          6           0       -0.003547    1.461859   -1.364313
      7          1           0        0.352763    1.966581   -0.490701
      8          1           0       -1.073547    1.461958   -1.364806
      9          6           0        0.510433    2.187267   -2.621774
     10          1           0        0.154134    1.682536   -3.495386
     11          1           0        1.580433    2.187180   -2.621274
     12          6           0       -0.002782    3.639234   -2.622606
     13          1           0        0.353538    4.143972   -1.749007
     14          1           0       -1.072782    3.639321   -2.623081
     15          6           0        0.511168    4.364631   -3.880086
     16          1           0        0.154845    3.859894   -4.753684
     17          1           0        1.581168    4.364543   -3.879612
     18          6           0       -0.002045    5.816600   -3.880916
     19          1           0        0.354282    6.321338   -3.007320
     20          1           0       -1.072045    5.816689   -3.881383
     21          6           0        0.511898    6.541994   -5.138400
     22          1           0        0.155568    6.037257   -6.011996
     23          1           0        1.581897    6.541903   -5.137934
     24          6           0       -0.001312    7.993964   -5.139229
     25          1           0        0.355020    8.498701   -4.265634
     26          1           0       -1.071312    7.994055   -5.139692
     27          6           0        0.512627    8.719357   -6.396715
     28          1           0        0.156295    8.214619   -7.270309
     29          1           0        1.582627    8.719265   -6.396252
     30          6           0       -0.000581   10.171327   -6.397543
     31          1           0        0.355752   10.676064   -5.523949
     32          1           0       -1.070581   10.171419   -6.398004
     33          6           0        0.513356   10.896720   -7.655030
     34          1           0        0.157021   10.391983   -8.528624
     35          1           0        1.583356   10.896626   -7.654570
     36          6           0        0.000150   12.348690   -7.655857
     37          1           0        0.356488   12.853427   -6.782264
     38          1           0       -1.069850   12.348784   -7.656314
     39          6           0        0.514084   13.074082   -8.913346
     40          1           0        0.157745   12.569345   -9.786938
     41          1           0        0.157508   14.082919   -8.913919
     42          1           0        1.584084   13.073986   -8.912890
 ---------------------------------------------------------------------
                    Distance matrix (angstroms):
                    1          2          3          4          5
     1  S    0.000000
     2  O    1.670000   0.000000
     3  O    1.670000   2.727098   0.000000
     4  O    1.670000   2.727099   2.727099   0.000000
     5  O    1.670000   2.727098   2.727099   2.727099   0.000000
     6  C    2.535375   3.981519   3.079957   3.079706   1.430000
     7  H    2.720669   4.244890   2.624165   3.412998   2.051796
     8  H    2.720902   4.244904   3.413765   2.624114   2.051796
     9  C    3.925743   5.152467   4.492695   4.492726   2.425826
    10  H    4.222066   5.269684   5.115905   4.626981   2.666076
    11  H    4.221925   5.269688   4.626551   5.115816   2.666089
    12  C    5.048316   6.462627   5.342837   5.342698   3.773817
    13  H    5.143887   6.628149   5.093740   5.541533   4.050526
    14  H    5.143978   6.628127   5.541964   5.093686   4.050502
    15  C    6.386947   7.667153   6.750441   6.750450   4.940212
    16  H    6.573230   7.746404   7.180286   6.840522   5.062506
    17  H    6.573158   7.746422   6.840272   7.180229   5.062524
    18  C    7.562499   8.962541   7.762365   7.762261   6.251962
    19  H    7.626631   9.082619   7.593064   7.900438   6.422780
    20  H    7.626688   9.082600   7.900741   7.593014   6.422762
    21  C    8.878246  10.181900   9.143366   9.143363   7.454883
    22  H    9.013183  10.241709   9.465155   9.210059   7.536481
    23  H    9.013135  10.241725   9.209890   9.465106   7.536495
    24  C   10.076994  11.468970  10.227964  10.227877   8.751050
    25  H   10.125213  11.563049  10.100078  10.333137   8.873892
    26  H   10.125255  11.563033  10.333375  10.100032   8.873879
    27  C   11.379892  12.696672  11.588027  11.588017   9.969624
    28  H   11.485475  12.744684  11.843579  11.640713  10.030785
    29  H   11.485439  12.744698  11.640589  11.843534  10.030797
    30  C   12.591615  13.978409  12.712857  12.712780  11.257143
    31  H   12.630237  14.055702  12.610197  12.797619  11.352901
    32  H   12.630270  14.055689  12.797816  12.610152  11.352890
    33  C   13.886294  15.211456  14.057458  14.057443  12.484393
    34  H   13.972951  15.251554  14.268851  14.100914  12.533288
    35  H   13.972921  15.251565  14.100818  14.268807  12.533297
    36  C   15.106299  16.489484  15.207589  15.207519  13.766415
    37  H   15.138507  16.555058  15.121875  15.278511  13.844829
    38  H   15.138534  16.555046  15.278681  15.121831  13.844819
    39  C   16.395271  17.726247  16.540568  16.540550  14.999175
    40  H   16.468731  17.760668  16.720598  16.577510  15.039897
    41  H   17.241583  18.608087  17.345542  17.345490  15.882366
    42  H   16.468706  17.760678  16.577436  16.720555  15.039904
                    6          7          8          9         10
     6  C    0.000000
     7  H    1.070000   0.000000
     8  H    1.070000   1.747303   0.000000
     9  C    1.540000   2.148263   2.148263   0.000000
    10  H    2.148263   3.024610   2.468851   1.070000   0.000000
    11  H    2.148263   2.468841   3.024610   1.070000   1.747303
    12  C    2.514809   2.732984   2.732971   1.540000   2.148263
    13  H    2.732989   2.514829   3.062251   2.148263   3.024610
    14  H    2.732966   3.062235   2.514789   2.148263   2.468855
    15  C    3.875581   4.154957   4.154932   2.514809   2.732966
    16  H    4.154937   4.668709   4.329381   2.732978   2.514797
    17  H    4.154952   4.329425   4.668700   2.732976   3.062224
    18  C    5.029618   5.142188   5.142162   3.875581   4.154938
    19  H    5.142183   5.029640   5.324483   4.154945   4.668699
    20  H    5.142166   5.324485   5.029596   4.154943   4.329403
    21  C    6.349582   6.523867   6.523834   5.029618   5.142162
    22  H    6.523844   6.862506   6.636298   5.142174   5.029605
    23  H    6.523857   6.636349   6.862487   5.142175   5.324465
    24  C    7.544428   7.619943   7.619911   6.349582   6.523841
    25  H    7.619933   7.544450   7.744117   6.523851   6.862488
    26  H    7.619921   7.744130   7.544405   6.523850   6.636319
    27  C    8.846626   8.972544   8.972508   7.544428   7.619913
    28  H    8.972520   9.221696   9.054607   7.619926   7.544413
    29  H    8.972531   9.054659   9.221671   7.619927   7.744106
    30  C   10.059237  10.116002  10.115967   8.846626   8.972515
    31  H   10.115989  10.059259  10.209854   8.972526   9.221674
    32  H   10.115979  10.209873  10.059214   8.972525   9.054626
    33  C   11.351516  11.449925  11.449886  10.059237  10.115971
    34  H   11.449901  11.646198  11.514335  10.115984  10.059222
    35  H   11.449910  11.514386  11.646168  10.115984  10.209846
    36  C   12.574046  12.619509  12.619472  11.351516  11.449894
    37  H   12.619494  12.574069  12.694858  11.449906  11.646172
    38  H   12.619485  12.694880  12.574023  11.449905  11.514352
    39  C   13.859998  13.940716  13.940676  12.574046  12.619476
    40  H   13.940692  14.102364  13.993657  12.619490  12.574031
    41  H   14.707605  14.757859  14.757820  13.461879  13.532554
    42  H   13.940699  13.993709  14.102332  12.619490  12.694851
                   11         12         13         14         15
    11  H    0.000000
    12  C    2.148263   0.000000
    13  H    2.468837   1.070000   0.000000
    14  H    3.024610   1.070000   1.747303   0.000000
    15  C    2.732989   1.540000   2.148263   2.148263   0.000000
    16  H    3.062262   2.148263   3.024610   2.468845   1.070000
    17  H    2.514821   2.148263   2.468847   3.024610   1.070000
    18  C    4.154952   2.514809   2.732977   2.732978   1.540000
    19  H    4.329404   2.732980   2.514811   3.062248   2.148263
    20  H    4.668709   2.732975   3.062238   2.514807   2.148263
    21  C    5.142188   3.875581   4.154946   4.154943   2.514809
    22  H    5.324503   4.154943   4.668704   4.329398   2.732978
    23  H    5.029632   4.154946   4.329408   4.668704   2.732976
    24  C    6.523860   5.029618   5.142175   5.142175   3.875581
    25  H    6.636328   5.142176   5.029620   5.324488   4.154944
    26  H    6.862505   5.142173   5.324480   5.029616   4.154945
    27  C    7.619941   6.349582   6.523853   6.523849   5.029618
    28  H    7.744141   6.523849   6.862497   6.636318   5.142175
    29  H    7.544442   6.523852   6.636329   6.862496   5.142175
    30  C    8.972537   7.544428   7.619928   7.619926   6.349582
    31  H    9.054641   7.619928   7.544430   7.744127   6.523850
    32  H    9.221694   7.619925   7.744121   7.544425   6.523850
    33  C   10.115999   8.846626   8.972528   8.972524   7.544428
    34  H   10.209881   8.972524   9.221685   9.054628   7.619927
    35  H   10.059251   8.972527   9.054638   9.221683   7.619926
    36  C   11.449917  10.059237  10.115986  10.115984   8.846626
    37  H   11.514370  10.115986  10.059240  10.209866   8.972526
    38  H   11.646193  10.115983  10.209861  10.059234   8.972525
    39  C   12.619505  11.351516  11.449908  11.449903  10.059237
    40  H   12.694887  11.449904  11.646184  11.514356  10.115985
    41  H   13.532580  12.193312  12.253860  12.253857  10.950328
    42  H   12.574060  11.449907  11.514366  11.646182  10.115984
                   16         17         18         19         20
    16  H    0.000000
    17  H    1.747303   0.000000
    18  C    2.148263   2.148263   0.000000
    19  H    3.024610   2.468843   1.070000   0.000000
    20  H    2.468849   3.024610   1.070000   1.747303   0.000000
    21  C    2.732975   2.732980   1.540000   2.148263   2.148263
    22  H    2.514807   3.062249   2.148263   3.024610   2.468845
    23  H    3.062237   2.514811   2.148263   2.468847   3.024610
    24  C    4.154944   4.154946   2.514809   2.732977   2.732978
    25  H    4.668703   4.329401   2.732978   2.514809   3.062246
    26  H    4.329405   4.668705   2.732976   3.062240   2.514809
    27  C    5.142172   5.142178   3.875581   4.154945   4.154944
    28  H    5.029616   5.324489   4.154944   4.668704   4.329401
    29  H    5.324479   5.029621   4.154945   4.329405   4.668705
    30  C    6.523849   6.523852   5.029618   5.142174   5.142175
    31  H    6.862495   6.636323   5.142175   5.029619   5.324486
    32  H    6.636324   6.862498   5.142174   5.324481   5.029618
    33  C    7.619924   7.619930   6.349582   6.523851   6.523850
    34  H    7.544425   7.744129   6.523850   6.862497   6.636321
    35  H    7.744119   7.544430   6.523851   6.636326   6.862496
    36  C    8.972524   8.972528   7.544428   7.619927   7.619928
    37  H    9.221682   9.054633   7.619928   7.544428   7.744127
    38  H    9.054633   9.221685   7.619926   7.744121   7.544427
    39  C   10.115982  10.115988   8.846626   8.972527   8.972525
    40  H   10.059234  10.209869   8.972525   9.221684   9.054631
    41  H   11.037110  11.037114   9.679288   9.755449   9.755449
    42  H   10.209858  10.059239   8.972526   9.054636   9.221684
                   21         22         23         24         25
    21  C    0.000000
    22  H    1.070000   0.000000
    23  H    1.070000   1.747303   0.000000
    24  C    1.540000   2.148263   2.148263   0.000000
    25  H    2.148263   3.024610   2.468845   1.070000   0.000000
    26  H    2.148263   2.468847   3.024610   1.070000   1.747303
    27  C    2.514809   2.732977   2.732978   1.540000   2.148263
    28  H    2.732977   2.514808   3.062245   2.148263   3.024610
    29  H    2.732977   3.062241   2.514810   2.148263   2.468847
    30  C    3.875581   4.154944   4.154945   2.514809   2.732977
    31  H    4.154944   4.668704   4.329402   2.732978   2.514810
    32  H    4.154944   4.329404   4.668704   2.732977   3.062242
    33  C    5.029618   5.142174   5.142176   3.875581   4.154945
    34  H    5.142175   5.029618   5.324487   4.154944   4.668704
    35  H    5.142174   5.324481   5.029619   4.154944   4.329405
    36  C    6.349582   6.523850   6.523851   5.029618   5.142175
    37  H    6.523850   6.862496   6.636323   5.142175   5.029619
    38  H    6.523850   6.636325   6.862497   5.142174   5.324481
    39  C    7.544428   7.619926   7.619929   6.349582   6.523851
    40  H    7.619927   7.544427   7.744127   6.523850   6.862497
    41  H    8.440716   8.553002   8.553003   7.165814   7.268360
    42  H    7.619926   7.744121   7.544428   6.523851   6.636326
                   26         27         28         29         30
    26  H    0.000000
    27  C    2.148263   0.000000
    28  H    2.468845   1.070000   0.000000
    29  H    3.024610   1.070000   1.747303   0.000000
    30  C    2.732978   1.540000   2.148263   2.148263   0.000000
    31  H    3.062244   2.148263   3.024610   2.468845   1.070000
    32  H    2.514809   2.148263   2.468847   3.024610   1.070000
    33  C    4.154944   2.514809   2.732977   2.732978   1.540000
    34  H    4.329402   2.732978   2.514809   3.062245   2.148263
    35  H    4.668704   2.732977   3.062241   2.514809   2.148263
    36  C    5.142175   3.875581   4.154945   4.154944   2.514809
    37  H    5.324486   4.154944   4.668704   4.329401   2.732978
    38  H    5.029618   4.154944   4.329405   4.668704   2.732976
    39  C    6.523850   5.029618   5.142174   5.142176   3.875581
    40  H    6.636321   5.142175   5.029618   5.324486   4.154944
    41  H    7.268360   5.935506   6.094128   6.094128   4.653783
    42  H    6.862496   5.142174   5.324481   5.029618   4.154945
                   31         32         33         34         35
    31  H    0.000000
    32  H    1.747303   0.000000
    33  C    2.148263   2.148263   0.000000
    34  H    3.024610   2.468845   1.070000   0.000000
    35  H    2.468847   3.024610   1.070000   1.747303   0.000000
    36  C    2.732977   2.732978   1.540000   2.148263   2.148263
    37  H    2.514810   3.062246   2.148263   3.024610   2.468845
    38  H    3.062240   2.514809   2.148263   2.468847   3.024610
    39  C    4.154945   4.154944   2.514809   2.732977   2.732979
    40  H    4.668704   4.329401   2.732978   2.514809   3.062246
    41  H    4.810183   4.810184   3.444314   3.710992   3.710993
    42  H    4.329405   4.668704   2.732976   3.062240   2.514809
                   36         37         38         39         40
    36  C    0.000000
    37  H    1.070000   0.000000
    38  H    1.070000   1.747303   0.000000
    39  C    1.540000   2.148263   2.148263   0.000000
    40  H    2.148263   3.024610   2.468845   1.070000   0.000000
    41  H    2.148263   2.468845   2.468846   1.070000   1.747303
    42  H    2.148263   2.468847   3.024610   1.070000   1.747303
                   41         42
    41  H    0.000000
    42  H    1.747303   0.000000
 Stoichiometry    C12H25O4S(1-)
 Framework group  C1[X(C12H25O4S)]
 Deg. of freedom   120
 Full point group                 C1      NOp   1
 Largest Abelian subgroup         C1      NOp   1
 Largest concise Abelian subgroup C1      NOp   1
                         Standard orientation:                         
 ---------------------------------------------------------------------
 Center     Atomic      Atomic             Coordinates (Angstroms)
 Number     Number       Type             X           Y           Z
 ---------------------------------------------------------------------
      1         16           0       -6.384670    0.102707    0.000064
      2          8           0       -7.703172   -0.922208   -0.000252
      3          8           0       -6.428337    1.065495    1.363895
      4          8           0       -6.428301    1.066293   -1.363204
      5          8           0       -4.978870   -0.798751   -0.000182
      6          6           0       -3.849412    0.078304   -0.000193
      7          1           0       -3.877105    0.695507    0.873417
      8          1           0       -3.877032    0.695392   -0.873885
      9          6           0       -2.553463   -0.753632   -0.000085
     10          1           0       -2.525778   -1.370845   -0.873687
     11          1           0       -2.525836   -1.370710    0.873615
     12          6           0       -1.337124    0.190888   -0.000117
     13          1           0       -1.364797    0.808084    0.873499
     14          1           0       -1.364765    0.807984   -0.873804
     15          6           0       -0.041176   -0.641048   -0.000046
     16          1           0       -0.013503   -1.258241   -0.873663
     17          1           0       -0.013536   -1.258145    0.873640
     18          6           0        1.175164    0.303473   -0.000075
     19          1           0        1.147493    0.920662    0.873545
     20          1           0        1.147521    0.920574   -0.873758
     21          6           0        2.471112   -0.528463   -0.000014
     22          1           0        2.498783   -1.145651   -0.873635
     23          1           0        2.498754   -1.145567    0.873668
     24          6           0        3.687452    0.416057   -0.000039
     25          1           0        3.659782    1.033243    0.873584
     26          1           0        3.659808    1.033162   -0.873719
     27          6           0        4.983400   -0.415879    0.000019
     28          1           0        5.011069   -1.033064   -0.873604
     29          1           0        5.011043   -1.032985    0.873699
     30          6           0        6.199739    0.528641   -0.000005
     31          1           0        6.172070    1.145825    0.873619
     32          1           0        6.172096    1.145748   -0.873684
     33          6           0        7.495688   -0.303295    0.000050
     34          1           0        7.523357   -0.920477   -0.873574
     35          1           0        7.523331   -0.920403    0.873728
     36          6           0        8.712027    0.641226    0.000029
     37          1           0        8.684358    1.258406    0.873655
     38          1           0        8.684383    1.258336   -0.873647
     39          6           0       10.007976   -0.190710    0.000081
     40          1           0       10.035645   -0.807889   -0.873547
     41          1           0       10.853095    0.465547    0.000069
     42          1           0       10.035619   -0.807822    0.873756
 ---------------------------------------------------------------------
 Rotational constants (GHZ):           2.5768241           0.0567623           0.0565069
 Leave Link  202 at Wed Sep 30 05:10:30 2020, MaxMem=  3221225472 cpu:               0.5 elap:               0.1
 (Enter /usr/local/Gaussian/gaussian-16-A03-avx2/g16/l301.exe)
 Standard basis: 6-311+G(d,p) (5D, 7F)
 Ernie: Thresh=  0.10000D-02 Tol=  0.10000D-05 Strict=F.
 There are   549 symmetry adapted cartesian basis functions of A   symmetry.
 There are   532 symmetry adapted basis functions of A   symmetry.
   532 basis functions,   826 primitive gaussians,   549 cartesian basis functions
    73 alpha electrons       73 beta electrons
       nuclear repulsion energy      1252.5045704912 Hartrees.
 IExCor=20419 DFT=T Ex+Corr=CAM-B3LYP ExCW=0 ScaHFX=  1.000000
 ScaDFX=  1.000000  1.000000  1.000000  0.810000 ScalE2=  1.000000  1.000000
 IRadAn=      5 IRanWt=     -1 IRanGd=            0 ICorTp=0 IEmpDi=  4
 HFx  wShort=  0.000000 wLong=  0.330000 cFull=  0.190000 cShort=  0.000000 cLong=  0.460000
 DFx  wShort=  0.000000 wLong=  0.330000 cFull=  0.190000 cShort=  0.000000 cLong=  0.460000
 NAtoms=   42 NActive=   42 NUniq=   42 SFac= 1.00D+00 NAtFMM=   60 NAOKFM=F Big=F
 Integral buffers will be    131072 words long.
 Raffenetti 2 integral format.
 Two-electron integral symmetry is turned on.
 Leave Link  301 at Wed Sep 30 05:10:30 2020, MaxMem=  3221225472 cpu:               0.6 elap:               0.1
 (Enter /usr/local/Gaussian/gaussian-16-A03-avx2/g16/linda-exe/l302.exel)
 NPDir=0 NMtPBC=     1 NCelOv=     1 NCel=       1 NClECP=     1 NCelD=      1
         NCelK=      1 NCelE2=     1 NClLst=     1 CellRange=     0.0.
 One-electron integrals computed using PRISM.
 One-electron integral symmetry used in STVInt
 NBasis=   532 RedAO= T EigKep=  1.11D-06  NBF=   532
 NBsUse=   532 1.00D-06 EigRej= -1.00D+00 NBFU=   532
 Precomputing XC quadrature grid using
 IXCGrd= 4 IRadAn=           5 IRanWt=          -1 IRanGd=           0 AccXCQ= 0.00D+00.
 Generated NRdTot=       0 NPtTot=           0 NUsed=           0 NTot=          32
 NSgBfM=   486   486   486   486   486 MxSgAt=    42 MxSgA2=    42.
 Leave Link  302 at Wed Sep 30 05:10:38 2020, MaxMem=  3221225472 cpu:              25.6 elap:               5.2
 (Enter /usr/local/Gaussian/gaussian-16-A03-avx2/g16/l303.exe)
 DipDrv:  MaxL=1.
 Leave Link  303 at Wed Sep 30 05:10:39 2020, MaxMem=  3221225472 cpu:               1.5 elap:               0.3
 (Enter /usr/local/Gaussian/gaussian-16-A03-avx2/g16/linda-exe/l401.exel)
 ExpMin= 4.05D-02 ExpMax= 9.34D+04 ExpMxC= 3.17D+03 IAcc=3 IRadAn=         5 AccDes= 0.00D+00
 Harris functional with IExCor=20419 and IRadAn=       5 diagonalized for initial guess.
 HarFok:  IExCor=20419 AccDes= 0.00D+00 IRadAn=         5 IDoV= 1 UseB2=F ITyADJ=14
 ICtDFT=  3500011 ScaDFX=  1.000000  1.000000  1.000000  1.000000
 FoFCou: FMM=F IPFlag=           0 FMFlag=      100000 FMFlg1=           0
         NFxFlg=           0 DoJE=T BraDBF=F KetDBF=T FulRan=T
         wScrn=  0.000000 ICntrl=       500 IOpCl=  0 I1Cent=   200000004 NGrid=           0
         NMat0=    1 NMatS0=      1 NMatT0=    0 NMatD0=    1 NMtDS0=    0 NMtDT0=    0
 Petite list used in FoFCou.
 Harris En= -1135.15499676875    
 JPrj=0 DoOrth=F DoCkMO=F.
 Leave Link  401 at Wed Sep 30 05:10:44 2020, MaxMem=  3221225472 cpu:              17.2 elap:               3.4
 (Enter /usr/local/Gaussian/gaussian-16-A03-avx2/g16/linda-exe/l502.exel)
 Integral symmetry usage will be decided dynamically.
 Closed shell SCF:
 Using DIIS extrapolation, IDIIS=  1040.
 NGot=  3221225472 LenX=  3220613867 LenY=  3220311917
 Requested convergence on RMS density matrix=1.00D-08 within  32 cycles.
 Requested convergence on MAX density matrix=1.00D-06.
 Requested convergence on             energy=1.00D-06.
 No special actions if energy rises.
 Fock matrices will be formed incrementally for  20 cycles.

 Cycle   1  Pass 1  IDiag  1:
 FoFJK:  IHMeth= 1 ICntrl=       0 DoSepK=T KAlg= 0 I1Cent=           0 FoldK=F
 IRaf=         1 NMat=       1 IRICut=       1 DoRegI=T DoRafI=F ISym2E= 0 IDoP0=0 IntGTp=1.
 FoFCou: FMM=F IPFlag=           0 FMFlag=      100000 FMFlg1=           0
         NFxFlg=           0 DoJE=T BraDBF=F KetDBF=F FulRan=T
         wScrn=  0.000000 ICntrl=       500 IOpCl=  0 I1Cent=           0 NGrid=           0
         NMat0=    1 NMatS0=      1 NMatT0=    0 NMatD0=    1 NMtDS0=    0 NMtDT0=    0
 Symmetry not used in FoFCou.
 E= -1170.69379449588    
 DIIS: error= 8.10D-02 at cycle   1 NSaved=   1.
 NSaved= 1 IEnMin= 1 EnMin= -1170.69379449588     IErMin= 1 ErrMin= 8.10D-02
 ErrMax= 8.10D-02  0.00D+00 EMaxC= 1.00D-01 BMatC= 2.37D+00 BMatP= 2.37D+00
 IDIUse=3 WtCom= 1.90D-01 WtEn= 8.10D-01
 Coeff-Com:  0.100D+01
 Coeff-En:   0.100D+01
 Coeff:      0.100D+01
 Gap=     0.310 Goal=   None    Shift=    0.000
 GapD=    0.310 DampG=1.000 DampE=0.500 DampFc=0.5000 IDamp=-1.
 Damping current iteration by 5.00D-01
 RMSDP=5.43D-02 MaxDP=7.01D+00              OVMax= 2.56D-01

 Cycle   2  Pass 1  IDiag  1:
 RMSU=  1.59D-02    CP:  1.58D+00
 E= -1170.90773009187     Delta-E=       -0.213935595987 Rises=F Damp=T
 DIIS: error= 3.56D-02 at cycle   2 NSaved=   2.
 NSaved= 2 IEnMin= 2 EnMin= -1170.90773009187     IErMin= 2 ErrMin= 3.56D-02
 ErrMax= 3.56D-02  0.00D+00 EMaxC= 1.00D-01 BMatC= 4.05D-01 BMatP= 2.37D+00
 IDIUse=3 WtCom= 6.44D-01 WtEn= 3.56D-01
 Coeff-Com: -0.323D+00 0.132D+01
 Coeff-En:   0.891D-01 0.911D+00
 Coeff:     -0.176D+00 0.118D+01
 Gap=     0.516 Goal=   None    Shift=    0.000
 RMSDP=2.50D-02 MaxDP=3.33D+00 DE=-2.14D-01 OVMax= 1.95D-01

 Cycle   3  Pass 1  IDiag  1:
 RMSU=  4.26D-03    CP:  1.03D+00  1.81D-01
 E= -1171.02111800389     Delta-E=       -0.113387912026 Rises=F Damp=F
 DIIS: error= 3.41D-02 at cycle   3 NSaved=   3.
 NSaved= 3 IEnMin= 3 EnMin= -1171.02111800389     IErMin= 3 ErrMin= 3.41D-02
 ErrMax= 3.41D-02  0.00D+00 EMaxC= 1.00D-01 BMatC= 2.69D-01 BMatP= 4.05D-01
 IDIUse=3 WtCom= 6.59D-01 WtEn= 3.41D-01
 Coeff-Com: -0.266D+00 0.727D+00 0.539D+00
 Coeff-En:   0.000D+00 0.259D+00 0.741D+00
 Coeff:     -0.176D+00 0.567D+00 0.608D+00
 Gap=     0.347 Goal=   None    Shift=    0.000
 RMSDP=2.49D-02 MaxDP=3.35D+00 DE=-1.13D-01 OVMax= 1.60D-01

 Cycle   4  Pass 1  IDiag  1:
 RMSU=  2.88D-03    CP:  1.59D+00  9.84D-01  3.87D-01
 E= -1171.16233861756     Delta-E=       -0.141220613664 Rises=F Damp=F
 DIIS: error= 2.19D-02 at cycle   4 NSaved=   4.
 NSaved= 4 IEnMin= 4 EnMin= -1171.16233861756     IErMin= 4 ErrMin= 2.19D-02
 ErrMax= 2.19D-02  0.00D+00 EMaxC= 1.00D-01 BMatC= 7.69D-02 BMatP= 2.69D-01
 IDIUse=3 WtCom= 7.81D-01 WtEn= 2.19D-01
 Coeff-Com: -0.664D-01 0.162D+00 0.375D+00 0.530D+00
 Coeff-En:   0.000D+00 0.000D+00 0.252D+00 0.748D+00
 Coeff:     -0.518D-01 0.126D+00 0.348D+00 0.578D+00
 Gap=     0.231 Goal=   None    Shift=    0.000
 RMSDP=8.26D-03 MaxDP=1.12D+00 DE=-1.41D-01 OVMax= 7.22D-02

 Cycle   5  Pass 1  IDiag  1:
 RMSU=  8.10D-04    CP:  1.41D+00  7.22D-01  6.13D-01  5.38D-01
 E= -1171.21491484736     Delta-E=       -0.052576229803 Rises=F Damp=F
 DIIS: error= 2.87D-03 at cycle   5 NSaved=   5.
 NSaved= 5 IEnMin= 5 EnMin= -1171.21491484736     IErMin= 5 ErrMin= 2.87D-03
 ErrMax= 2.87D-03  0.00D+00 EMaxC= 1.00D-01 BMatC= 1.80D-03 BMatP= 7.69D-02
 IDIUse=3 WtCom= 9.71D-01 WtEn= 2.87D-02
 Coeff-Com:  0.471D-03-0.165D-02 0.493D-01 0.196D+00 0.756D+00
 Coeff-En:   0.000D+00 0.000D+00 0.000D+00 0.000D+00 0.100D+01
 Coeff:      0.457D-03-0.161D-02 0.479D-01 0.190D+00 0.763D+00
 Gap=     0.223 Goal=   None    Shift=    0.000
 RMSDP=4.85D-04 MaxDP=4.07D-02 DE=-5.26D-02 OVMax= 9.03D-03

 Cycle   6  Pass 1  IDiag  1:
 RMSU=  2.37D-04    CP:  1.40D+00  7.22D-01  6.51D-01  6.07D-01  6.17D-01
 E= -1171.21612798994     Delta-E=       -0.001213142585 Rises=F Damp=F
 DIIS: error= 8.44D-04 at cycle   6 NSaved=   6.
 NSaved= 6 IEnMin= 6 EnMin= -1171.21612798994     IErMin= 6 ErrMin= 8.44D-04
 ErrMax= 8.44D-04  0.00D+00 EMaxC= 1.00D-01 BMatC= 1.92D-04 BMatP= 1.80D-03
 IDIUse=3 WtCom= 9.92D-01 WtEn= 8.44D-03
 Coeff-Com:  0.693D-02-0.166D-01-0.127D-01 0.507D-01 0.442D+00 0.530D+00
 Coeff-En:   0.000D+00 0.000D+00 0.000D+00 0.000D+00 0.000D+00 0.100D+01
 Coeff:      0.687D-02-0.165D-01-0.126D-01 0.503D-01 0.438D+00 0.534D+00
 Gap=     0.222 Goal=   None    Shift=    0.000
 RMSDP=4.23D-04 MaxDP=5.82D-02 DE=-1.21D-03 OVMax= 2.56D-03

 Cycle   7  Pass 1  IDiag  1:
 RMSU=  7.28D-05    CP:  1.41D+00  7.31D-01  6.34D-01  6.23D-01  7.32D-01
                    CP:  6.94D-01
 E= -1171.21625851365     Delta-E=       -0.000130523707 Rises=F Damp=F
 DIIS: error= 3.65D-04 at cycle   7 NSaved=   7.
 NSaved= 7 IEnMin= 7 EnMin= -1171.21625851365     IErMin= 7 ErrMin= 3.65D-04
 ErrMax= 3.65D-04  0.00D+00 EMaxC= 1.00D-01 BMatC= 1.36D-05 BMatP= 1.92D-04
 IDIUse=3 WtCom= 9.96D-01 WtEn= 3.65D-03
 Coeff-Com:  0.325D-02-0.753D-02-0.135D-01-0.136D-03 0.133D+00 0.263D+00
 Coeff-Com:  0.622D+00
 Coeff-En:   0.000D+00 0.000D+00 0.000D+00 0.000D+00 0.000D+00 0.000D+00
 Coeff-En:   0.100D+01
 Coeff:      0.324D-02-0.750D-02-0.135D-01-0.135D-03 0.133D+00 0.262D+00
 Coeff:      0.624D+00
 Gap=     0.222 Goal=   None    Shift=    0.000
 RMSDP=1.65D-04 MaxDP=2.31D-02 DE=-1.31D-04 OVMax= 1.08D-03

 Cycle   8  Pass 1  IDiag  1:
 RMSU=  2.53D-05    CP:  1.41D+00  7.28D-01  6.41D-01  6.15D-01  7.08D-01
                    CP:  8.41D-01  8.26D-01
 E= -1171.21626774056     Delta-E=       -0.000009226907 Rises=F Damp=F
 DIIS: error= 1.96D-04 at cycle   8 NSaved=   8.
 NSaved= 8 IEnMin= 8 EnMin= -1171.21626774056     IErMin= 8 ErrMin= 1.96D-04
 ErrMax= 1.96D-04  0.00D+00 EMaxC= 1.00D-01 BMatC= 3.42D-06 BMatP= 1.36D-05
 IDIUse=3 WtCom= 9.98D-01 WtEn= 1.96D-03
 Coeff-Com:  0.121D-02-0.273D-02-0.714D-02-0.625D-02 0.311D-01 0.997D-01
 Coeff-Com:  0.386D+00 0.499D+00
 Coeff-En:   0.000D+00 0.000D+00 0.000D+00 0.000D+00 0.000D+00 0.000D+00
 Coeff-En:   0.916D-01 0.908D+00
 Coeff:      0.121D-02-0.273D-02-0.713D-02-0.624D-02 0.310D-01 0.995D-01
 Coeff:      0.385D+00 0.499D+00
 Gap=     0.223 Goal=   None    Shift=    0.000
 RMSDP=5.12D-05 MaxDP=6.95D-03 DE=-9.23D-06 OVMax= 4.88D-04

 Cycle   9  Pass 1  IDiag  1:
 RMSU=  8.86D-06    CP:  1.41D+00  7.29D-01  6.39D-01  6.17D-01  7.20D-01
                    CP:  8.11D-01  9.49D-01  7.58D-01
 E= -1171.21627049037     Delta-E=       -0.000002749816 Rises=F Damp=F
 DIIS: error= 3.42D-05 at cycle   9 NSaved=   9.
 NSaved= 9 IEnMin= 9 EnMin= -1171.21627049037     IErMin= 9 ErrMin= 3.42D-05
 ErrMax= 3.42D-05  0.00D+00 EMaxC= 1.00D-01 BMatC= 1.83D-07 BMatP= 3.42D-06
 IDIUse=1 WtCom= 1.00D+00 WtEn= 0.00D+00
 Coeff-Com: -0.393D-04 0.943D-04-0.663D-03-0.308D-02-0.151D-01-0.107D-01
 Coeff-Com:  0.241D-01 0.173D+00 0.832D+00
 Coeff:     -0.393D-04 0.943D-04-0.663D-03-0.308D-02-0.151D-01-0.107D-01
 Coeff:      0.241D-01 0.173D+00 0.832D+00
 Gap=     0.223 Goal=   None    Shift=    0.000
 RMSDP=1.40D-05 MaxDP=1.75D-03 DE=-2.75D-06 OVMax= 1.94D-04

 Cycle  10  Pass 1  IDiag  1:
 RMSU=  2.83D-06    CP:  1.41D+00  7.29D-01  6.40D-01  6.16D-01  7.16D-01
                    CP:  8.31D-01  9.61D-01  8.44D-01  1.09D+00
 E= -1171.21627075477     Delta-E=       -0.000000264395 Rises=F Damp=F
 DIIS: error= 8.19D-06 at cycle  10 NSaved=  10.
 NSaved=10 IEnMin=10 EnMin= -1171.21627075477     IErMin=10 ErrMin= 8.19D-06
 ErrMax= 8.19D-06  0.00D+00 EMaxC= 1.00D-01 BMatC= 3.11D-08 BMatP= 1.83D-07
 IDIUse=1 WtCom= 1.00D+00 WtEn= 0.00D+00
 Coeff-Com: -0.155D-03 0.358D-03 0.710D-03-0.283D-03-0.103D-01-0.179D-01
 Coeff-Com: -0.481D-01-0.461D-02 0.358D+00 0.722D+00
 Coeff:     -0.155D-03 0.358D-03 0.710D-03-0.283D-03-0.103D-01-0.179D-01
 Coeff:     -0.481D-01-0.461D-02 0.358D+00 0.722D+00
 Gap=     0.223 Goal=   None    Shift=    0.000
 RMSDP=6.55D-06 MaxDP=8.03D-04 DE=-2.64D-07 OVMax= 7.02D-05

 Cycle  11  Pass 1  IDiag  1:
 RMSU=  1.65D-06    CP:  1.41D+00  7.29D-01  6.40D-01  6.16D-01  7.16D-01
                    CP:  8.34D-01  9.61D-01  8.43D-01  1.26D+00  9.77D-01
 E= -1171.21627079403     Delta-E=       -0.000000039265 Rises=F Damp=F
 DIIS: error= 1.62D-06 at cycle  11 NSaved=  11.
 NSaved=11 IEnMin=11 EnMin= -1171.21627079403     IErMin=11 ErrMin= 1.62D-06
 ErrMax= 1.62D-06  0.00D+00 EMaxC= 1.00D-01 BMatC= 6.57D-10 BMatP= 3.11D-08
 IDIUse=1 WtCom= 1.00D+00 WtEn= 0.00D+00
 Coeff-Com: -0.472D-05 0.136D-04 0.880D-04 0.167D-03-0.123D-03-0.124D-02
 Coeff-Com: -0.561D-02-0.774D-02-0.111D-01 0.619D-01 0.964D+00
 Coeff:     -0.472D-05 0.136D-04 0.880D-04 0.167D-03-0.123D-03-0.124D-02
 Coeff:     -0.561D-02-0.774D-02-0.111D-01 0.619D-01 0.964D+00
 Gap=     0.223 Goal=   None    Shift=    0.000
 RMSDP=8.10D-07 MaxDP=7.39D-05 DE=-3.93D-08 OVMax= 1.43D-05

 Cycle  12  Pass 1  IDiag  1:
 RMSU=  2.83D-07    CP:  1.41D+00  7.29D-01  6.40D-01  6.16D-01  7.15D-01
                    CP:  8.34D-01  9.58D-01  8.35D-01  1.27D+00  1.06D+00
                    CP:  1.16D+00
 E= -1171.21627079508     Delta-E=       -0.000000001047 Rises=F Damp=F
 DIIS: error= 7.56D-07 at cycle  12 NSaved=  12.
 NSaved=12 IEnMin=12 EnMin= -1171.21627079508     IErMin=12 ErrMin= 7.56D-07
 ErrMax= 7.56D-07  0.00D+00 EMaxC= 1.00D-01 BMatC= 1.70D-10 BMatP= 6.57D-10
 IDIUse=1 WtCom= 1.00D+00 WtEn= 0.00D+00
 Coeff-Com:  0.969D-05-0.219D-04-0.115D-04 0.102D-03 0.750D-03 0.866D-03
 Coeff-Com:  0.112D-02-0.314D-02-0.322D-01-0.340D-01 0.401D+00 0.666D+00
 Coeff:      0.969D-05-0.219D-04-0.115D-04 0.102D-03 0.750D-03 0.866D-03
 Coeff:      0.112D-02-0.314D-02-0.322D-01-0.340D-01 0.401D+00 0.666D+00
 Gap=     0.223 Goal=   None    Shift=    0.000
 RMSDP=1.72D-07 MaxDP=1.59D-05 DE=-1.05D-09 OVMax= 3.68D-06

 Cycle  13  Pass 1  IDiag  1:
 RMSU=  7.83D-08    CP:  1.41D+00  7.29D-01  6.40D-01  6.16D-01  7.15D-01
                    CP:  8.34D-01  9.57D-01  8.34D-01  1.28D+00  1.07D+00
                    CP:  1.21D+00  9.85D-01
 E= -1171.21627079529     Delta-E=       -0.000000000212 Rises=F Damp=F
 DIIS: error= 1.70D-07 at cycle  13 NSaved=  13.
 NSaved=13 IEnMin=13 EnMin= -1171.21627079529     IErMin=13 ErrMin= 1.70D-07
 ErrMax= 1.70D-07  0.00D+00 EMaxC= 1.00D-01 BMatC= 6.72D-12 BMatP= 1.70D-10
 IDIUse=1 WtCom= 1.00D+00 WtEn= 0.00D+00
 Coeff-Com:  0.137D-05-0.307D-05-0.534D-05-0.539D-05 0.666D-04 0.196D-03
 Coeff-Com:  0.267D-03 0.544D-04 0.297D-03-0.590D-02-0.456D-01 0.316D-01
 Coeff-Com:  0.102D+01
 Coeff:      0.137D-05-0.307D-05-0.534D-05-0.539D-05 0.666D-04 0.196D-03
 Coeff:      0.267D-03 0.544D-04 0.297D-03-0.590D-02-0.456D-01 0.316D-01
 Coeff:      0.102D+01
 Gap=     0.223 Goal=   None    Shift=    0.000
 RMSDP=1.26D-07 MaxDP=1.39D-05 DE=-2.12D-10 OVMax= 1.88D-06

 Cycle  14  Pass 1  IDiag  1:
 RMSU=  2.33D-08    CP:  1.41D+00  7.29D-01  6.40D-01  6.16D-01  7.15D-01
                    CP:  8.33D-01  9.57D-01  8.33D-01  1.28D+00  1.07D+00
                    CP:  1.23D+00  1.09D+00  1.27D+00
 E= -1171.21627079530     Delta-E=       -0.000000000008 Rises=F Damp=F
 DIIS: error= 4.39D-08 at cycle  14 NSaved=  14.
 NSaved=14 IEnMin=14 EnMin= -1171.21627079530     IErMin=14 ErrMin= 4.39D-08
 ErrMax= 4.39D-08  0.00D+00 EMaxC= 1.00D-01 BMatC= 5.74D-13 BMatP= 6.72D-12
 IDIUse=1 WtCom= 1.00D+00 WtEn= 0.00D+00
 Coeff-Com: -0.240D-06 0.557D-06-0.124D-05-0.803D-05-0.242D-04 0.657D-05
 Coeff-Com:  0.274D-04 0.213D-03 0.196D-02 0.452D-03-0.393D-01-0.365D-01
 Coeff-Com:  0.282D+00 0.791D+00
 Coeff:     -0.240D-06 0.557D-06-0.124D-05-0.803D-05-0.242D-04 0.657D-05
 Coeff:      0.274D-04 0.213D-03 0.196D-02 0.452D-03-0.393D-01-0.365D-01
 Coeff:      0.282D+00 0.791D+00
 Gap=     0.223 Goal=   None    Shift=    0.000
 RMSDP=2.19D-08 MaxDP=1.57D-06 DE=-8.19D-12 OVMax= 5.41D-07

 Cycle  15  Pass 1  IDiag  1:
 RMSU=  6.93D-09    CP:  1.41D+00  7.29D-01  6.40D-01  6.16D-01  7.15D-01
                    CP:  8.33D-01  9.57D-01  8.32D-01  1.28D+00  1.07D+00
                    CP:  1.23D+00  1.12D+00  1.34D+00  1.05D+00
 E= -1171.21627079528     Delta-E=        0.000000000020 Rises=F Damp=F
 DIIS: error= 1.70D-08 at cycle  15 NSaved=  15.
 NSaved=15 IEnMin=14 EnMin= -1171.21627079530     IErMin=15 ErrMin= 1.70D-08
 ErrMax= 1.70D-08  0.00D+00 EMaxC= 1.00D-01 BMatC= 1.23D-13 BMatP= 5.74D-13
 IDIUse=1 WtCom= 1.00D+00 WtEn= 0.00D+00
 Coeff-Com: -0.406D-06 0.888D-06 0.454D-06-0.218D-05-0.222D-04-0.348D-04
 Coeff-Com: -0.359D-04 0.785D-04 0.679D-03 0.123D-02-0.813D-02-0.188D-01
 Coeff-Com: -0.467D-01 0.272D+00 0.800D+00
 Coeff:     -0.406D-06 0.888D-06 0.454D-06-0.218D-05-0.222D-04-0.348D-04
 Coeff:     -0.359D-04 0.785D-04 0.679D-03 0.123D-02-0.813D-02-0.188D-01
 Coeff:     -0.467D-01 0.272D+00 0.800D+00
 Gap=     0.223 Goal=   None    Shift=    0.000
 RMSDP=1.61D-08 MaxDP=2.17D-06 DE= 1.96D-11 OVMax= 2.58D-07

 Cycle  16  Pass 1  IDiag  1:
 RMSU=  2.76D-09    CP:  1.41D+00  7.29D-01  6.40D-01  6.16D-01  7.15D-01
                    CP:  8.33D-01  9.57D-01  8.32D-01  1.28D+00  1.07D+00
                    CP:  1.23D+00  1.12D+00  1.35D+00  1.13D+00  1.12D+00
 E= -1171.21627079529     Delta-E=       -0.000000000013 Rises=F Damp=F
 DIIS: error= 4.27D-09 at cycle  16 NSaved=  16.
 NSaved=16 IEnMin=14 EnMin= -1171.21627079530     IErMin=16 ErrMin= 4.27D-09
 ErrMax= 4.27D-09  0.00D+00 EMaxC= 1.00D-01 BMatC= 6.88D-15 BMatP= 1.23D-13
 IDIUse=1 WtCom= 1.00D+00 WtEn= 0.00D+00
 Coeff-Com: -0.260D-07 0.516D-07 0.102D-06 0.472D-06-0.509D-06-0.514D-05
 Coeff-Com: -0.576D-05-0.527D-05-0.112D-03 0.859D-04 0.250D-02 0.168D-02
 Coeff-Com: -0.263D-01-0.480D-01 0.667D-01 0.100D+01
 Coeff:     -0.260D-07 0.516D-07 0.102D-06 0.472D-06-0.509D-06-0.514D-05
 Coeff:     -0.576D-05-0.527D-05-0.112D-03 0.859D-04 0.250D-02 0.168D-02
 Coeff:     -0.263D-01-0.480D-01 0.667D-01 0.100D+01
 Gap=     0.223 Goal=   None    Shift=    0.000
 RMSDP=8.79D-09 MaxDP=1.23D-06 DE=-1.32D-11 OVMax= 1.07D-07

 Cycle  17  Pass 1  IDiag  1:
 RMSU=  1.17D-09    CP:  1.41D+00  7.29D-01  6.40D-01  6.16D-01  7.15D-01
                    CP:  8.33D-01  9.57D-01  8.32D-01  1.28D+00  1.07D+00
                    CP:  1.23D+00  1.12D+00  1.35D+00  1.15D+00  1.20D+00
                    CP:  1.29D+00
 E= -1171.21627079529     Delta-E=        0.000000000006 Rises=F Damp=F
 DIIS: error= 1.58D-09 at cycle  17 NSaved=  17.
 NSaved=17 IEnMin=14 EnMin= -1171.21627079530     IErMin=17 ErrMin= 1.58D-09
 ErrMax= 1.58D-09  0.00D+00 EMaxC= 1.00D-01 BMatC= 7.58D-16 BMatP= 6.88D-15
 IDIUse=1 WtCom= 1.00D+00 WtEn= 0.00D+00
 Large coefficients: NSaved= 17 BigCof=    0.00 CofMax=   10.00 Det=-2.99D-15
 Inversion failed.  Reducing to 16 matrices.
 Large coefficients: NSaved= 16 BigCof=    0.00 CofMax=   10.00 Det=-3.16D-15
 Inversion failed.  Reducing to 15 matrices.
 Coeff-Com:  0.862D-07 0.230D-06 0.295D-06-0.673D-06-0.304D-05-0.604D-05
 Coeff-Com: -0.380D-04-0.167D-04 0.103D-02 0.141D-02-0.416D-02-0.306D-01
 Coeff-Com: -0.384D-01 0.259D+00 0.811D+00
 Coeff:      0.862D-07 0.230D-06 0.295D-06-0.673D-06-0.304D-05-0.604D-05
 Coeff:     -0.380D-04-0.167D-04 0.103D-02 0.141D-02-0.416D-02-0.306D-01
 Coeff:     -0.384D-01 0.259D+00 0.811D+00
 Gap=     0.223 Goal=   None    Shift=    0.000
 RMSDP=1.93D-09 MaxDP=2.64D-07 DE= 6.37D-12 OVMax= 3.15D-08

 SCF Done:  E(RCAM-B3LYP) =  -1171.21627080     A.U. after   17 cycles
            NFock= 17  Conv=0.19D-08     -V/T= 2.0030
 KE= 1.167757927647D+03 PE=-5.271425959599D+03 EE= 1.679947190666D+03
 Leave Link  502 at Wed Sep 30 05:13:57 2020, MaxMem=  3221225472 cpu:            1126.1 elap:             192.6
 (Enter /usr/local/Gaussian/gaussian-16-A03-avx2/g16/linda-exe/l508.exel)
 QCSCF skips out because SCF is already converged.
 Leave Link  508 at Wed Sep 30 05:13:58 2020, MaxMem=  3221225472 cpu:               0.2 elap:               0.1
 (Enter /usr/local/Gaussian/gaussian-16-A03-avx2/g16/l601.exe)
 Copying SCF densities to generalized density rwf, IOpCl= 0 IROHF=0.

 **********************************************************************

            Population analysis using the SCF density.

 **********************************************************************

 Orbital symmetries:
       Occupied  (A) (A) (A) (A) (A) (A) (A) (A) (A) (A) (A) (A)
                 (A) (A) (A) (A) (A) (A) (A) (A) (A) (A) (A) (A)
                 (A) (A) (A) (A) (A) (A) (A) (A) (A) (A) (A) (A)
                 (A) (A) (A) (A) (A) (A) (A) (A) (A) (A) (A) (A)
                 (A) (A) (A) (A) (A) (A) (A) (A) (A) (A) (A) (A)
                 (A) (A) (A) (A) (A) (A) (A) (A) (A) (A) (A) (A)
                 (A)
       Virtual   (A) (A) (A) (A) (A) (A) (A) (A) (A) (A) (A) (A)
                 (A) (A) (A) (A) (A) (A) (A) (A) (A) (A) (A) (A)
                 (A) (A) (A) (A) (A) (A) (A) (A) (A) (A) (A) (A)
                 (A) (A) (A) (A) (A) (A) (A) (A) (A) (A) (A) (A)
                 (A) (A) (A) (A) (A) (A) (A) (A) (A) (A) (A) (A)
                 (A) (A) (A) (A) (A) (A) (A) (A) (A) (A) (A) (A)
                 (A) (A) (A) (A) (A) (A) (A) (A) (A) (A) (A) (A)
                 (A) (A) (A) (A) (A) (A) (A) (A) (A) (A) (A) (A)
                 (A) (A) (A) (A) (A) (A) (A) (A) (A) (A) (A) (A)
                 (A) (A) (A) (A) (A) (A) (A) (A) (A) (A) (A) (A)
                 (A) (A) (A) (A) (A) (A) (A) (A) (A) (A) (A) (A)
                 (A) (A) (A) (A) (A) (A) (A) (A) (A) (A) (A) (A)
                 (A) (A) (A) (A) (A) (A) (A) (A) (A) (A) (A) (A)
                 (A) (A) (A) (A) (A) (A) (A) (A) (A) (A) (A) (A)
                 (A) (A) (A) (A) (A) (A) (A) (A) (A) (A) (A) (A)
                 (A) (A) (A) (A) (A) (A) (A) (A) (A) (A) (A) (A)
                 (A) (A) (A) (A) (A) (A) (A) (A) (A) (A) (A) (A)
                 (A) (A) (A) (A) (A) (A) (A) (A) (A) (A) (A) (A)
                 (A) (A) (A) (A) (A) (A) (A) (A) (A) (A) (A) (A)
                 (A) (A) (A) (A) (A) (A) (A) (A) (A) (A) (A) (A)
                 (A) (A) (A) (A) (A) (A) (A) (A) (A) (A) (A) (A)
                 (A) (A) (A) (A) (A) (A) (A) (A) (A) (A) (A) (A)
                 (A) (A) (A) (A) (A) (A) (A) (A) (A) (A) (A) (A)
                 (A) (A) (A) (A) (A) (A) (A) (A) (A) (A) (A) (A)
                 (A) (A) (A) (A) (A) (A) (A) (A) (A) (A) (A) (A)
                 (A) (A) (A) (A) (A) (A) (A) (A) (A) (A) (A) (A)
                 (A) (A) (A) (A) (A) (A) (A) (A) (A) (A) (A) (A)
                 (A) (A) (A) (A) (A) (A) (A) (A) (A) (A) (A) (A)
                 (A) (A) (A) (A) (A) (A) (A) (A) (A) (A) (A) (A)
                 (A) (A) (A) (A) (A) (A) (A) (A) (A) (A) (A) (A)
                 (A) (A) (A) (A) (A) (A) (A) (A) (A) (A) (A) (A)
                 (A) (A) (A) (A) (A) (A) (A) (A) (A) (A) (A) (A)
                 (A) (A) (A) (A) (A) (A) (A) (A) (A) (A) (A) (A)
                 (A) (A) (A) (A) (A) (A) (A) (A) (A) (A) (A) (A)
                 (A) (A) (A) (A) (A) (A) (A) (A) (A) (A) (A) (A)
                 (A) (A) (A) (A) (A) (A) (A) (A) (A) (A) (A) (A)
                 (A) (A) (A) (A) (A) (A) (A) (A) (A) (A) (A) (A)
                 (A) (A) (A) (A) (A) (A) (A) (A) (A) (A) (A) (A)
                 (A) (A) (A)
 The electronic state is 1-A.
 Alpha  occ. eigenvalues --  -88.99940 -19.11571 -19.01802 -19.01668 -19.01668
 Alpha  occ. eigenvalues --  -10.19022 -10.18552 -10.18413 -10.18188 -10.17820
 Alpha  occ. eigenvalues --  -10.17724 -10.17381 -10.16918 -10.16354 -10.15830
 Alpha  occ. eigenvalues --  -10.15189 -10.14261  -8.05561  -6.02126  -6.01780
 Alpha  occ. eigenvalues --   -6.01773  -1.03951  -0.91933  -0.85468  -0.83384
 Alpha  occ. eigenvalues --   -0.83126  -0.83053  -0.81074  -0.78193  -0.74701
 Alpha  occ. eigenvalues --   -0.70767  -0.66690  -0.63109  -0.61929  -0.60787
 Alpha  occ. eigenvalues --   -0.59638  -0.58017  -0.55381  -0.52357  -0.50369
 Alpha  occ. eigenvalues --   -0.48378  -0.46260  -0.46254  -0.44121  -0.43880
 Alpha  occ. eigenvalues --   -0.43483  -0.42154  -0.41457  -0.41289  -0.39239
 Alpha  occ. eigenvalues --   -0.38775  -0.37948  -0.36815  -0.36756  -0.35815
 Alpha  occ. eigenvalues --   -0.35440  -0.35142  -0.34558  -0.34329  -0.33586
 Alpha  occ. eigenvalues --   -0.33362  -0.32430  -0.31959  -0.31500  -0.30276
 Alpha  occ. eigenvalues --   -0.27539  -0.24823  -0.21876  -0.20225  -0.20145
 Alpha  occ. eigenvalues --   -0.17255  -0.17124  -0.15019
 Alpha virt. eigenvalues --    0.07240   0.08492   0.08838   0.09351   0.10352
 Alpha virt. eigenvalues --    0.10558   0.11284   0.12295   0.12369   0.12558
 Alpha virt. eigenvalues --    0.12845   0.13404   0.14361   0.14385   0.14874
 Alpha virt. eigenvalues --    0.14973   0.15936   0.15954   0.16706   0.17245
 Alpha virt. eigenvalues --    0.17260   0.17874   0.18431   0.18942   0.19454
 Alpha virt. eigenvalues --    0.20031   0.20287   0.20700   0.21293   0.22028
 Alpha virt. eigenvalues --    0.22261   0.22662   0.22906   0.23541   0.24087
 Alpha virt. eigenvalues --    0.24276   0.24803   0.25494   0.25535   0.25784
 Alpha virt. eigenvalues --    0.26134   0.26733   0.27076   0.27346   0.27659
 Alpha virt. eigenvalues --    0.28097   0.28514   0.28589   0.28821   0.29394
 Alpha virt. eigenvalues --    0.29686   0.29836   0.30232   0.30782   0.31508
 Alpha virt. eigenvalues --    0.31537   0.31758   0.31966   0.32339   0.32787
 Alpha virt. eigenvalues --    0.32896   0.33051   0.33594   0.33620   0.34360
 Alpha virt. eigenvalues --    0.34363   0.35077   0.35558   0.35685   0.35950
 Alpha virt. eigenvalues --    0.36519   0.36874   0.37362   0.37461   0.37966
 Alpha virt. eigenvalues --    0.38499   0.38499   0.39149   0.39873   0.40236
 Alpha virt. eigenvalues --    0.40484   0.40779   0.41311   0.41531   0.42465
 Alpha virt. eigenvalues --    0.43321   0.44118   0.44429   0.44592   0.45179
 Alpha virt. eigenvalues --    0.45780   0.45919   0.46732   0.47028   0.47137
 Alpha virt. eigenvalues --    0.47422   0.48575   0.48649   0.48863   0.49373
 Alpha virt. eigenvalues --    0.49451   0.50053   0.50254   0.50457   0.51542
 Alpha virt. eigenvalues --    0.51841   0.52745   0.52916   0.53269   0.54294
 Alpha virt. eigenvalues --    0.54774   0.55031   0.56767   0.57206   0.57663
 Alpha virt. eigenvalues --    0.58637   0.59676   0.60053   0.61239   0.61396
 Alpha virt. eigenvalues --    0.62535   0.63816   0.63896   0.65150   0.66546
 Alpha virt. eigenvalues --    0.68528   0.69088   0.69437   0.70344   0.70381
 Alpha virt. eigenvalues --    0.71828   0.71972   0.73077   0.73917   0.74319
 Alpha virt. eigenvalues --    0.75118   0.75514   0.76777   0.76810   0.76962
 Alpha virt. eigenvalues --    0.77487   0.78509   0.78782   0.79313   0.79334
 Alpha virt. eigenvalues --    0.79566   0.80206   0.80256   0.80676   0.81039
 Alpha virt. eigenvalues --    0.81481   0.82187   0.82527   0.83693   0.83980
 Alpha virt. eigenvalues --    0.84180   0.84990   0.85910   0.86275   0.87362
 Alpha virt. eigenvalues --    0.88096   0.88177   0.88815   0.89092   0.90086
 Alpha virt. eigenvalues --    0.90645   0.91000   0.91758   0.92345   0.92672
 Alpha virt. eigenvalues --    0.93519   0.93664   0.96067   0.99131   1.02242
 Alpha virt. eigenvalues --    1.03673   1.05233   1.05881   1.09343   1.10099
 Alpha virt. eigenvalues --    1.10662   1.11261   1.11392   1.11737   1.12533
 Alpha virt. eigenvalues --    1.13822   1.14144   1.15623   1.16127   1.16772
 Alpha virt. eigenvalues --    1.19267   1.19422   1.21745   1.25140   1.28027
 Alpha virt. eigenvalues --    1.28168   1.30792   1.33699   1.33774   1.34770
 Alpha virt. eigenvalues --    1.35534   1.36241   1.36505   1.37248   1.37937
 Alpha virt. eigenvalues --    1.38219   1.38704   1.38910   1.39583   1.39719
 Alpha virt. eigenvalues --    1.40086   1.41148   1.41250   1.42485   1.43598
 Alpha virt. eigenvalues --    1.44038   1.44089   1.44994   1.46241   1.47840
 Alpha virt. eigenvalues --    1.50746   1.57423   1.57507   1.58215   1.59789
 Alpha virt. eigenvalues --    1.62108   1.63376   1.63476   1.64469   1.65575
 Alpha virt. eigenvalues --    1.66863   1.67630   1.68282   1.68801   1.69334
 Alpha virt. eigenvalues --    1.69607   1.71150   1.71642   1.72216   1.73392
 Alpha virt. eigenvalues --    1.74554   1.76055   1.76823   1.78112   1.78347
[...]
 Alpha virt. eigenvalues --   23.99488  23.99646  24.04486  49.96440
          Condensed to atoms (all electrons):
               1          2          3          4          5          6
     1  C    5.492948   0.411895   0.387020   0.411902   0.097539  -0.056731
     2  H    0.411895   0.558247  -0.026220  -0.035597  -0.009753  -0.008878
     3  H    0.387020  -0.026220   0.545295  -0.026220  -0.065497  -0.005099
     4  H    0.411902  -0.035597  -0.026220   0.558249  -0.009752   0.008210
     5  C    0.097539  -0.009753  -0.065497  -0.009752   5.634138   0.437655
     6  H   -0.056731  -0.008878  -0.005099   0.008210   0.437655   0.572942
     7  H   -0.056730   0.008210  -0.005099  -0.008878   0.437646  -0.041594
     8  C    0.121866  -0.030795   0.042653  -0.030798  -0.140420  -0.047525
     9  H    0.000732   0.004103   0.000027  -0.000993  -0.086527  -0.009170
    10  H    0.000726  -0.000992   0.000026   0.004103  -0.086529   0.008594
    11  C   -0.099233  -0.002318   0.010727  -0.002320   0.243216  -0.004545
    12  H    0.002635  -0.000020  -0.000010   0.000018  -0.002848  -0.000727
    13  H    0.002631   0.000018  -0.000010  -0.000020  -0.002857   0.003410
    14  C   -0.104380  -0.000384   0.003195  -0.000387  -0.114113   0.005710
    15  H    0.000277  -0.000023   0.000001   0.000005   0.001545   0.000066
    16  H    0.000277   0.000005   0.000001  -0.000023   0.001542  -0.000052
    17  C   -0.009379  -0.000375   0.000380  -0.000376  -0.088839   0.001623
    18  H    0.000117  -0.000000  -0.000000   0.000000   0.001126   0.000010
    19  H    0.000117   0.000000  -0.000000  -0.000000   0.001127  -0.000029
    20  C   -0.004837  -0.000017   0.000022  -0.000017  -0.006214   0.000008
    21  H    0.000015  -0.000000   0.000000   0.000000   0.000116   0.000000
    22  H    0.000015   0.000000   0.000000  -0.000000   0.000116  -0.000000
    23  C   -0.000727  -0.000001   0.000001  -0.000001  -0.002916   0.000002
    24  H    0.000002   0.000000  -0.000000  -0.000000   0.000022   0.000000
    25  H    0.000002  -0.000000  -0.000000   0.000000   0.000022   0.000000
    26  O   -0.000001  -0.000000   0.000000  -0.000000  -0.000000  -0.000000
    27  H   -0.000000  -0.000000   0.000000  -0.000000  -0.000001  -0.000000
               7          8          9         10         11         12
     1  C   -0.056730   0.121866   0.000732   0.000726  -0.099233   0.002635
     2  H    0.008210  -0.030795   0.004103  -0.000992  -0.002318  -0.000020
     3  H   -0.005099   0.042653   0.000027   0.000026   0.010727  -0.000010
     4  H   -0.008878  -0.030798  -0.000993   0.004103  -0.002320   0.000018
     5  C    0.437646  -0.140420  -0.086527  -0.086529   0.243216  -0.002848
     6  H   -0.041594  -0.047525  -0.009170   0.008594  -0.004545  -0.000727
     7  H    0.572941  -0.047525   0.008594  -0.009171  -0.004543   0.003410
     8  C   -0.047525   6.429330   0.480515   0.480507  -0.275673  -0.086600
     9  H    0.008594   0.480515   0.568735  -0.043284  -0.077090   0.008406
    10  H   -0.009171   0.480507  -0.043284   0.568736  -0.077087  -0.008404
    11  C   -0.004543  -0.275673  -0.077090  -0.077087   6.551192   0.485277
    12  H    0.003410  -0.086600   0.008406  -0.008404   0.485277   0.567507
    13  H   -0.000726  -0.086624  -0.008405   0.008406   0.485269  -0.043078
    14  C    0.005712  -0.027623   0.004928   0.004939  -0.577872  -0.081327
    15  H   -0.000052   0.002246   0.002753  -0.000513  -0.088820   0.008237
    16  H    0.000066   0.002233  -0.000513   0.002753  -0.088832  -0.007974
    17  C    0.001625  -0.254525   0.006273   0.006275   0.008586   0.006236
    18  H   -0.000029   0.009158  -0.000065   0.000070   0.014289   0.002570
    19  H    0.000010   0.009159   0.000070  -0.000065   0.014289  -0.000440
    20  C    0.000008  -0.197796   0.000802   0.000802  -0.238730   0.004702
    21  H   -0.000000   0.003700  -0.000029   0.000009   0.012631  -0.000064
    22  H    0.000000   0.003702   0.000009  -0.000029   0.012634   0.000081
    23  C    0.000002  -0.048545   0.000059   0.000059  -0.165362   0.001056
    24  H    0.000000   0.000405  -0.000000   0.000000   0.003142  -0.000037
    25  H    0.000000   0.000405   0.000000  -0.000000   0.003144   0.000013
    26  O   -0.000000  -0.000229  -0.000000  -0.000000  -0.000855   0.000002
    27  H   -0.000000  -0.000115  -0.000000  -0.000000  -0.000480   0.000000
              13         14         15         16         17         18
     1  C    0.002631  -0.104380   0.000277   0.000277  -0.009379   0.000117
     2  H    0.000018  -0.000384  -0.000023   0.000005  -0.000375  -0.000000
     3  H   -0.000010   0.003195   0.000001   0.000001   0.000380  -0.000000
     4  H   -0.000020  -0.000387   0.000005  -0.000023  -0.000376   0.000000
     5  C   -0.002857  -0.114113   0.001545   0.001542  -0.088839   0.001126
     6  H    0.003410   0.005710   0.000066  -0.000052   0.001623   0.000010
     7  H   -0.000726   0.005712  -0.000052   0.000066   0.001625  -0.000029
     8  C   -0.086624  -0.027623   0.002246   0.002233  -0.254525   0.009158
     9  H   -0.008405   0.004928   0.002753  -0.000513   0.006273  -0.000065
    10  H    0.008406   0.004939  -0.000513   0.002753   0.006275   0.000070
    11  C    0.485269  -0.577872  -0.088820  -0.088832   0.008586   0.014289
    12  H   -0.043078  -0.081327   0.008237  -0.007974   0.006236   0.002570
    13  H    0.567507  -0.081307  -0.007973   0.008237   0.006256  -0.000440
    14  C   -0.081307   7.065060   0.495454   0.495452  -0.640200  -0.071140
    15  H   -0.007973   0.495454   0.561414  -0.041593  -0.083550   0.008373
    16  H    0.008237   0.495452  -0.041593   0.561414  -0.083531  -0.008279
    17  C    0.006256  -0.640200  -0.083550  -0.083531   6.400215   0.470873
    18  H   -0.000440  -0.071140   0.008373  -0.008279   0.470873   0.570431
    19  H    0.002570  -0.071139  -0.008279   0.008373   0.470866  -0.045070
    20  C    0.004706   0.199079   0.000339   0.000347  -0.131458  -0.088822
    21  H    0.000081   0.025103   0.002943  -0.000554  -0.059405   0.008164
    22  H   -0.000064   0.025113  -0.000553   0.002943  -0.059412  -0.008321
    23  C    0.001057  -0.479032   0.002916   0.002919   0.236214  -0.006679
    24  H    0.000013   0.011847  -0.000060   0.000062  -0.025979   0.005199
    25  H   -0.000037   0.011852   0.000062  -0.000060  -0.025979  -0.001390
    26  O    0.000002   0.047255  -0.000070  -0.000070  -0.042100  -0.000144
    27  H    0.000000  -0.015944   0.000004   0.000004   0.018293  -0.000070
              19         20         21         22         23         24
     1  C    0.000117  -0.004837   0.000015   0.000015  -0.000727   0.000002
     2  H    0.000000  -0.000017  -0.000000   0.000000  -0.000001   0.000000
     3  H   -0.000000   0.000022   0.000000   0.000000   0.000001  -0.000000
     4  H   -0.000000  -0.000017   0.000000  -0.000000  -0.000001  -0.000000
     5  C    0.001127  -0.006214   0.000116   0.000116  -0.002916   0.000022
     6  H   -0.000029   0.000008   0.000000  -0.000000   0.000002   0.000000
     7  H    0.000010   0.000008  -0.000000   0.000000   0.000002   0.000000
     8  C    0.009159  -0.197796   0.003700   0.003702  -0.048545   0.000405
     9  H    0.000070   0.000802  -0.000029   0.000009   0.000059  -0.000000
    10  H   -0.000065   0.000802   0.000009  -0.000029   0.000059   0.000000
    11  C    0.014289  -0.238730   0.012631   0.012634  -0.165362   0.003142
    12  H   -0.000440   0.004702  -0.000064   0.000081   0.001056  -0.000037
    13  H    0.002570   0.004706   0.000081  -0.000064   0.001057   0.000013
    14  C   -0.071139   0.199079   0.025103   0.025113  -0.479032   0.011847
    15  H   -0.008279   0.000339   0.002943  -0.000553   0.002916  -0.000060
    16  H    0.008373   0.000347  -0.000554   0.002943   0.002919   0.000062
    17  C    0.470866  -0.131458  -0.059405  -0.059412   0.236214  -0.025979
    18  H   -0.045070  -0.088822   0.008164  -0.008321  -0.006679   0.005199
    19  H    0.570431  -0.088817  -0.008321   0.008164  -0.006679  -0.001390
    20  C   -0.088817   6.416656   0.455126   0.455123  -0.367213  -0.007364
    21  H   -0.008321   0.455126   0.540741  -0.035920  -0.096256   0.009208
    22  H    0.008164   0.455123  -0.035920   0.540741  -0.096260  -0.011982
    23  C   -0.006679  -0.367213  -0.096256  -0.096260   6.486980   0.385914
    24  H   -0.001390  -0.007364   0.009208  -0.011982   0.385914   0.622686
    25  H    0.005199  -0.007367  -0.011982   0.009208   0.385909  -0.063932
    26  O   -0.000144   0.196526   0.003249   0.003249  -0.107468  -0.049228
    27  H   -0.000070  -0.148042  -0.000594  -0.000594   0.176676  -0.008612
              25         26         27
     1  C    0.000002  -0.000001  -0.000000
     2  H   -0.000000  -0.000000  -0.000000
     3  H   -0.000000   0.000000   0.000000
     4  H    0.000000  -0.000000  -0.000000
     5  C    0.000022  -0.000000  -0.000001
     6  H    0.000000  -0.000000  -0.000000
     7  H    0.000000  -0.000000  -0.000000
     8  C    0.000405  -0.000229  -0.000115
     9  H    0.000000  -0.000000  -0.000000
    10  H   -0.000000  -0.000000  -0.000000
    11  C    0.003144  -0.000855  -0.000480
    12  H    0.000013   0.000002   0.000000
    13  H   -0.000037   0.000002   0.000000
    14  C    0.011852   0.047255  -0.015944
    15  H    0.000062  -0.000070   0.000004
    16  H   -0.000060  -0.000070   0.000004
    17  C   -0.025979  -0.042100   0.018293
    18  H   -0.001390  -0.000144  -0.000070
    19  H    0.005199  -0.000144  -0.000070
    20  C   -0.007367   0.196526  -0.148042
    21  H   -0.011982   0.003249  -0.000594
    22  H    0.009208   0.003249  -0.000594
    23  C    0.385909  -0.107468   0.176676
    24  H   -0.063932  -0.049228  -0.008612
    25  H    0.622686  -0.049228  -0.008611
    26  O   -0.049228   8.120015   0.191812
    27  H   -0.008611   0.191812   0.552984
 Mulliken charges:
               1
     1  C   -0.598698
     2  H    0.132895
     3  H    0.138806
     4  H    0.132895
     5  C   -0.239544
     6  H    0.136122
     7  H    0.136123
     8  C   -0.311086
     9  H    0.140069
    10  H    0.140068
    11  C   -0.140633
    12  H    0.141378
    13  H    0.141377
    14  C   -0.135853
    15  H    0.144851
    16  H    0.144851
    17  C   -0.128606
    18  H    0.140067
    19  H    0.140067
    20  C   -0.447553
    21  H    0.152038
    22  H    0.152038
    23  C   -0.302627
    24  H    0.130084
    25  H    0.130084
    26  O   -0.312573
    27  H    0.243360
 Sum of Mulliken charges =  -0.00000
 Mulliken charges with hydrogens summed into heavy atoms:
               1
     1  C   -0.194102
     5  C    0.032701
     8  C   -0.030949
    11  C    0.142122
    14  C    0.153849
    17  C    0.151527
    20  C   -0.143477
    23  C   -0.042459
    26  O   -0.069213
 Electronic spatial extent (au):  <R**2>=           3263.9216
 Charge=             -0.0000 electrons
 Dipole moment (field-independent basis, Debye):
    X=             -0.0799    Y=              1.7262    Z=             -0.0000  Tot=              1.7281
 Quadrupole moment (field-independent basis, Debye-Ang):
   XX=            -59.3775   YY=            -62.7327   ZZ=            -60.2149
   XY=              8.7347   XZ=             -0.0001   YZ=              0.0000
 Traceless Quadrupole moment (field-independent basis, Debye-Ang):
   XX=              1.3976   YY=             -1.9577   ZZ=              0.5601
   XY=              8.7347   XZ=             -0.0001   YZ=              0.0000
 Octapole moment (field-independent basis, Debye-Ang**2):
  XXX=             70.7305  YYY=             -0.6066  ZZZ=             -0.0001  XYY=              3.4889
  XXY=             48.8160  XXZ=             -0.0006  XZZ=              5.6078  YZZ=             -0.1112
  YYZ=              0.0000  XYZ=              0.0001
 Hexadecapole moment (field-independent basis, Debye-Ang**3):
 XXXX=          -3713.2319 YYYY=           -218.7952 ZZZZ=           -124.1253 XXXY=            210.4917
 XXXZ=             -0.0040 YYYX=             -2.7467 YYYZ=             -0.0001 ZZZX=              0.0001
 ZZZY=              0.0000 XXYY=           -746.2501 XXZZ=           -706.0248 YYZZ=            -51.4614
 XXYZ=              0.0003 YYXZ=             -0.0001 ZZXY=              2.7634
 N-N= 4.461522083595D+02 E-N=-1.800770110738D+03  KE= 3.892243906974D+02
 No NMR shielding tensors so no spin-rotation constants.
 Leave Link  601 at Wed Sep 30 05:46:42 2020, MaxMem=  3221225472 cpu:               7.0 elap:               1.4
 (Enter /usr/local/Gaussian/gaussian-16-A03-avx2/g16/linda-exe/l602.exel)
 FitSet:  NAtFit=    27 NAtPot=    27 NAtFrz=     0 MDM=    31 TotChg=   0.00000
 Breneman (CHELPG) radii used.
 Generate Potential Derived Charges using the Breneman model, NDens= 1.
 Grid spacing= 0.300 Box extension= 2.800
 NStep X,Y,Z=   59     27     26   Total possible points=       41418
 Number of Points to Fit=   16079

 **********************************************************************

            Electrostatic Properties Using The SCF Density

 **********************************************************************

       Atomic Center    1 is at  -5.073739 -0.351986 -0.000012
       Atomic Center    2 is at  -5.120390 -0.996693 -0.881872
       Atomic Center    3 is at  -5.967958  0.275162  0.000020
       Atomic Center    4 is at  -5.120380 -0.996767  0.881795
       Atomic Center    5 is at  -3.800539  0.487347  0.000018
       Atomic Center    6 is at  -3.796248  1.146111 -0.875332
       Atomic Center    7 is at  -3.796249  1.146053  0.875412
       Atomic Center    8 is at  -2.528077 -0.354708 -0.000008
       Atomic Center    9 is at  -2.532517 -1.014590 -0.875890
       Atomic Center   10 is at  -2.532510 -1.014630  0.875844
       Atomic Center   11 is at  -1.247805  0.474775  0.000004
       Atomic Center   12 is at  -1.244494  1.134364  0.876053
       Atomic Center   13 is at  -1.244483  1.134370 -0.876041
       Atomic Center   14 is at   0.023195 -0.368921  0.000008
       Atomic Center   15 is at   0.020679 -1.028256 -0.875780
       Atomic Center   16 is at   0.020688 -1.028230  0.875816
       Atomic Center   17 is at   1.303231  0.461493 -0.000010
       Atomic Center   18 is at   1.303910  1.120407  0.876494
       Atomic Center   19 is at   1.303909  1.120369 -0.876544
       Atomic Center   20 is at   2.569302 -0.389307  0.000008
       Atomic Center   21 is at   2.583760 -1.042733 -0.877761
       Atomic Center   22 is at   2.583760 -1.042696  0.877804
       Atomic Center   23 is at   3.834867  0.441390 -0.000011
       Atomic Center   24 is at   3.858202  1.087661  0.887136
       Atomic Center   25 is at   3.858200  1.087625 -0.887183
       Atomic Center   26 is at   4.947491 -0.444367  0.000006
       Atomic Center   27 is at   5.759591  0.066915 -0.000000
   16079 points will be used for fitting atomic charges
 Fitting point charges to electrostatic potential
 Charges from ESP fit, RMS=   0.00218 RRMS=   0.22316:
 ESP charges:
               1
     1  C   -0.223115
     2  H    0.044203
     3  H    0.047457
     4  H    0.044201
     5  C    0.214352
     6  H   -0.045702
     7  H   -0.045696
     8  C   -0.040588
     9  H   -0.001228
    10  H   -0.001232
    11  C    0.027583
    12  H   -0.017987
    13  H   -0.017984
    14  C    0.177741
    15  H   -0.047088
    16  H   -0.047084
    17  C   -0.174957
    18  H    0.017178
    19  H    0.017173
    20  C    0.120436
    21  H    0.000732
    22  H    0.000731
    23  C    0.356977
    24  H   -0.044960
    25  H   -0.044961
    26  O   -0.744236
    27  H    0.428056
 Sum of ESP charges =  -0.00000
 ESP charges with hydrogens summed into heavy atoms:
               1
     1  C   -0.087255
     5  C    0.122953
     8  C   -0.043048
    11  C   -0.008388
    14  C    0.083569
    17  C   -0.140605
    20  C    0.121899
    23  C    0.267056
    26  O   -0.316180
 Charge=  -0.00000 Dipole=    -0.0712     1.6912     0.0000 Tot=     1.6927
 -----------------------------------------------------------------

              Electrostatic Properties (Atomic Units)

 -----------------------------------------------------------------
    Center     Electric         -------- Electric Field --------
               Potential          X             Y             Z
 -----------------------------------------------------------------
    1 Atom    -14.789764
    2 Atom     -1.126290
    3 Atom     -1.125665
    4 Atom     -1.126290
    5 Atom    -14.782327
    6 Atom     -1.131740
    7 Atom     -1.131740
    8 Atom    -14.784886
    9 Atom     -1.131231
   10 Atom     -1.131231
   11 Atom    -14.783961
   12 Atom     -1.130433
   13 Atom     -1.130433
   14 Atom    -14.783030
   15 Atom     -1.130193
   16 Atom     -1.130193
   17 Atom    -14.779685
   18 Atom     -1.127044
   19 Atom     -1.127044
   20 Atom    -14.784342
   21 Atom     -1.129269
   22 Atom     -1.129269
   23 Atom    -14.728944
   24 Atom     -1.121298
   25 Atom     -1.121298
   26 Atom    -22.372696
   27 Atom     -1.001749
 -----------------------------------------------------------------
 Leave Link  602 at Wed Sep 30 05:46:44 2020, MaxMem=  3221225472 cpu:               5.0 elap:               1.0
 (Enter /usr/local/Gaussian/gaussian-16-A03-avx2/g16/l9999.exe)
 1\1\GINC-NODE-009\SP\RCAM-B3LYP\6-311+G(d,p)\C8H18O1\ROOT\30-Sep-2020\
 0\\#P CAM-B3LYP/6-311+G** Guess=Read Geom=Check Pop=CHelpG\\Octanol ch
 arge distribution\\0,1\C,0,-4.9618094011,-0.6012498078,-0.6456365546\H
 ,0,-4.6157450294,-1.6376407474,-0.6860700745\H,0,-4.6051305317,-0.0970
 981991,-1.5464987437\H,0,-6.0543812053,-0.6174226132,-0.6847244562\C,0
 ,-4.4676661007,0.0938901175,0.618531922\H,0,-3.3725611037,0.1248523873
 ,0.6151280486\H,0,-4.8006464601,1.1376068766,0.6164530005\C,0,-4.94609
 63316,-0.5824184597,1.8999089133\H,0,-4.6133985424,-1.6273781228,1.901
 8502839\H,0,-6.0422816713,-0.6140359766,1.9031836812\C,0,-4.4575873527
 ,0.1047356627,3.171253428\H,0,-4.790598391,1.1495446918,3.1681869351\H
 ,0,-3.3614410319,0.1359665269,3.166871225\C,0,-4.9370013097,-0.5729053
 062,4.4511866504\H,0,-4.6040506231,-1.6173494488,4.4550454795\H,0,-6.0
 327832685,-0.604032736,4.4563802213\C,0,-4.4479312287,0.1149887723,5.7
 222853734\H,0,-4.7817221086,1.1594887066,5.7165941377\H,0,-3.351820497
 9,0.1453275447,5.7152670464\C,0,-4.9314990239,-0.5684795247,6.99736558
 83\H,0,-4.5933998184,-1.6091093415,7.0181332119\H,0,-6.0253633307,-0.5
 934870938,7.0194621099\C,0,-4.4423637844,0.1195260907,8.2539906321\H,0
 ,-4.7919949126,1.1600572472,8.2710976171\H,0,-3.3447328931,0.133587453
 2,8.2697531028\O,0,-4.9471942034,-0.5937249761,9.3760057655\H,0,-4.645
 917244,-0.1699904837,10.1826015353\\Version=ES64L-G16RevA.03\State=1-A
 \HF=-390.8115302\RMSD=2.407e-09\Dipole=0.3926554,0.5536787,-0.0387012\
 Quadrupole=-0.1588917,-0.7412625,0.9001542,-0.8161248,3.7717368,5.3173
 33\PG=C01 [X(C8H18O1)]\\@


 LORD, MAN... WERE YE BUT WHYLES WHERE I AM, 
 THE GENTILES YE WAD NE'ER ENVY 'EM.        
 IT'S TRUE, THEY NEEDNA STARVE OR SWEAT,     
 THRO' WINTER'S CAULD OR SIMMER'S HEAT...  
 THEY'VE NAE SAIR WARK TO CRAZE THEIR BANES, 
 AND FILL AULD AGE WITH GRIPS AN' GRANES...  
                                             
 BUT HUMAN BODIES ARE SIC FOOLS              
 FOR A' THEIR COLLEGES AND SCHOOLS,           
 THAT WHEN NAE REAL ILLS PERPLEX THEM,       
 THEY MAK ENOW THEMSELVES TO VEX THEM,       
 AN' AYE THE LESS THEY HAE TO STURT THEM,    
 IN LIKE PROPORTION LESS WILL HURT THEM....  
                                             
                (ROBERT BURNS 'THE TWA DOGS')
 Job cpu time:       0 days  0 hours  0 minutes 13.9 seconds.
 Elapsed time:       0 days  0 hours  0 minutes 15.7 seconds.
 File lengths (MBytes):  RWF=     54 Int=      0 D2E=      0 Chk=      9 Scr=      1
 Normal termination of Gaussian 16 at Wed Sep 30 05:46:44 2020.
